
Linearized model: Predictions were generated on 17-Jan-2026 at 06:32:31 using OpenFAST, compiled as a 64-bit application using single precision at commit v3.5.1
 linked with  NWTC Subroutine Library; ElastoDyn

Description from the FAST input file: FAST Certification Test #18: NREL 5.0 MW Baseline Wind Turbine (Onshore)

Simulation information:
   Simulation time:                   165.5563 s
   Rotor Speed:                         0.3142 rad/s
   Azimuth:                             1.7455 rad
   Wind Speed:                          0.0000 m/s
   Number of continuous states:        16
   Number of discrete states:           0
   Number of constraint states:         0
   Number of inputs:                    6
   Number of outputs:                  33
   Jacobians included in this file?    No

Order of continuous states:
   Row/Column Operating Point                                             Rotating Frame? Derivative Order Description
   ---------- ---------------                                             --------------- ---------------- -----------
          1     1.314032488E-005                                                 F               2         ED 1st tower fore-aft bending mode DOF (internal DOF index = DOF_TFA1), m
          2    -5.655224413E-007                                                 F               2         ED 1st tower side-to-side bending mode DOF (internal DOF index = DOF_TSS1), m
          3     2.403565869E-002                                                 T               2         ED 1st flapwise bending-mode DOF of blade 1 (internal DOF index = DOF_BF(1,1)), m
          4     2.403642423E-002                                                 T               2         ED 1st flapwise bending-mode DOF of blade 2 (internal DOF index = DOF_BF(2,1)), m
          5     2.405077592E-002                                                 T               2         ED 1st flapwise bending-mode DOF of blade 3 (internal DOF index = DOF_BF(3,1)), m
          6    -1.069026417E-003                                                 T               2         ED 2nd flapwise bending-mode DOF of blade 1 (internal DOF index = DOF_BF(1,2)), m
          7    -1.069183811E-003                                                 T               2         ED 2nd flapwise bending-mode DOF of blade 2 (internal DOF index = DOF_BF(2,2)), m
          8    -1.069362042E-003                                                 T               2         ED 2nd flapwise bending-mode DOF of blade 3 (internal DOF index = DOF_BF(3,2)), m
          9    -3.192151053E-005                                                 F               2         ED First time derivative of 1st tower fore-aft bending mode DOF (internal DOF index = DOF_TFA1), m/s
         10     1.212072857E-005                                                 F               2         ED First time derivative of 1st tower side-to-side bending mode DOF (internal DOF index = DOF_TSS1), m/s
         11    -2.469289757E-005                                                 T               2         ED First time derivative of 1st flapwise bending-mode DOF of blade 1 (internal DOF index = DOF_BF(1,1)), m/s
         12    -1.465905711E-006                                                 T               2         ED First time derivative of 1st flapwise bending-mode DOF of blade 2 (internal DOF index = DOF_BF(2,1)), m/s
         13    -3.310270768E-005                                                 T               2         ED First time derivative of 1st flapwise bending-mode DOF of blade 3 (internal DOF index = DOF_BF(3,1)), m/s
         14     1.439294124E-006                                                 T               2         ED First time derivative of 2nd flapwise bending-mode DOF of blade 1 (internal DOF index = DOF_BF(1,2)), m/s
         15     1.316629323E-006                                                 T               2         ED First time derivative of 2nd flapwise bending-mode DOF of blade 2 (internal DOF index = DOF_BF(2,2)), m/s
         16     2.061562327E-006                                                 T               2         ED First time derivative of 2nd flapwise bending-mode DOF of blade 3 (internal DOF index = DOF_BF(3,2)), m/s

Order of continuous state derivatives:
   Row/Column Operating Point                                             Rotating Frame? Derivative Order Description
   ---------- ---------------                                             --------------- ---------------- -----------
          1    -3.192151053E-005                                                 F               2         First time derivative of ED 1st tower fore-aft bending mode DOF (internal DOF index = DOF_TFA1), m/s
          2     1.212072857E-005                                                 F               2         First time derivative of ED 1st tower side-to-side bending mode DOF (internal DOF index = DOF_TSS1), m/s
          3    -2.469289757E-005                                                 T               2         First time derivative of ED 1st flapwise bending-mode DOF of blade 1 (internal DOF index = DOF_BF(1,1)), m/s
          4    -1.465905711E-006                                                 T               2         First time derivative of ED 1st flapwise bending-mode DOF of blade 2 (internal DOF index = DOF_BF(2,1)), m/s
          5    -3.310270768E-005                                                 T               2         First time derivative of ED 1st flapwise bending-mode DOF of blade 3 (internal DOF index = DOF_BF(3,1)), m/s
          6     1.439294124E-006                                                 T               2         First time derivative of ED 2nd flapwise bending-mode DOF of blade 1 (internal DOF index = DOF_BF(1,2)), m/s
          7     1.316629323E-006                                                 T               2         First time derivative of ED 2nd flapwise bending-mode DOF of blade 2 (internal DOF index = DOF_BF(2,2)), m/s
          8     2.061562327E-006                                                 T               2         First time derivative of ED 2nd flapwise bending-mode DOF of blade 3 (internal DOF index = DOF_BF(3,2)), m/s
          9    -5.536014214E-005                                                 F               2         First time derivative of ED First time derivative of 1st tower fore-aft bending mode DOF (internal DOF index = DOF_TFA1), m/s/s
         10     2.022580702E-006                                                 F               2         First time derivative of ED First time derivative of 1st tower side-to-side bending mode DOF (internal DOF index = DOF_TSS1), m/s/s
         11    -1.266346953E-005                                                 T               2         First time derivative of ED First time derivative of 1st flapwise bending-mode DOF of blade 1 (internal DOF index = DOF_BF(1,1)), m/s/s
         12    -3.111664773E-005                                                 T               2         First time derivative of ED First time derivative of 1st flapwise bending-mode DOF of blade 2 (internal DOF index = DOF_BF(2,1)), m/s/s
         13    -9.567519010E-005                                                 T               2         First time derivative of ED First time derivative of 1st flapwise bending-mode DOF of blade 3 (internal DOF index = DOF_BF(3,1)), m/s/s
         14     1.300623012E-006                                                 T               2         First time derivative of ED First time derivative of 2nd flapwise bending-mode DOF of blade 1 (internal DOF index = DOF_BF(1,2)), m/s/s
         15     2.790157168E-006                                                 T               2         First time derivative of ED First time derivative of 2nd flapwise bending-mode DOF of blade 2 (internal DOF index = DOF_BF(2,2)), m/s/s
         16     3.119815119E-006                                                 T               2         First time derivative of ED First time derivative of 2nd flapwise bending-mode DOF of blade 3 (internal DOF index = DOF_BF(3,2)), m/s/s

Order of inputs:
     Column   Operating Point                                             Rotating Frame? Derivative Order Description
   ---------- ---------------                                             --------------- ---------------- -----------
          1     0.000000000E+000                                                 T               0         ED Blade 1 pitch command, rad
          2     0.000000000E+000                                                 T               0         ED Blade 2 pitch command, rad
          3     0.000000000E+000                                                 T               0         ED Blade 3 pitch command, rad
          4     0.000000000E+000                                                 F               0         ED Yaw moment, Nm
          5     0.000000000E+000                                                 F               0         ED Generator torque, Nm
          6     0.000000000E+000                                                 F               0         ED Extended input: collective blade-pitch command, rad

Order of outputs:
        Row   Operating Point                                             Rotating Frame? Derivative Order Description
   ---------- ---------------                                             --------------- ---------------- -----------
          1     2.273757569E-002                                                 T               0         ED OoPDefl1, (m)
          2    -3.086620243E-003                                                 T               0         ED IPDefl1, (m)
          3     0.000000000E+000                                                 T               0         ED TwstDefl1, (deg)
          4     0.000000000E+000                                                 T               0         ED BldPitch1, (deg)
          5     1.000125809E+002                                                 F               0         ED Azimuth, (deg)
          6     3.000000000E+000                                                 F               0         ED RotSpeed, (rpm)
          7     2.910000000E+002                                                 F               0         ED GenSpeed, (rpm)
          8     1.314032488E-005                                                 F               0         ED TTDspFA, (m)
          9     5.655224413E-007                                                 F               0         ED TTDspSS, (m)
         10     0.000000000E+000                                                 F               0         ED TTDspTwst, (deg)
         11    -1.278207898E+000                                                 T               0         ED Spn2MLxb1, (kN-m)
         12     1.105811119E+001                                                 T               0         ED Spn2MLyb1, (kN-m)
         13     1.671543598E+000                                                 T               0         ED RootFxb1, (kN)
         14    -7.020095363E-004                                                 T               0         ED RootFyb1, (kN)
         15     3.826447296E+001                                                 T               0         ED RootFzb1, (kN)
         16    -6.275160238E-003                                                 T               0         ED RootMxb1, (kN-m)
         17     5.267341995E+001                                                 T               0         ED RootMyb1, (kN-m)
         18     1.652045641E-003                                                 T               0         ED RootMzb1, (kN-m)
         19    -7.175996434E-004                                                 F               0         ED RotTorq, (kN-m)
         20    -1.675980911E-002                                                 F               0         ED LSSGagMya, (kN-m)
         21    -2.853298187E-002                                                 F               0         ED LSSGagMza, (kN-m)
         22     2.055267803E-002                                                 F               0         ED YawBrFxp, (kN)
         23     7.823753403E-004                                                 F               0         ED YawBrFyp, (kN)
         24     1.472474542E-004                                                 F               0         ED YawBrFzp, (kN)
         25    -3.225945169E-003                                                 F               0         ED YawBrMxp, (kN-m)
         26     7.307483256E-002                                                 F               0         ED YawBrMyp, (kN-m)
         27    -1.135501359E-002                                                 F               0         ED YawBrMzp, (kN-m)
         28     2.584637515E-002                                                 F               0         ED TwrBsFxt, (kN)
         29     9.848276386E-004                                                 F               0         ED TwrBsFyt, (kN)
         30     1.472429140E-004                                                 F               0         ED TwrBsFzt, (kN)
         31    -8.442022651E-002                                                 F               0         ED TwrBsMxt, (kN-m)
         32     2.206331730E+000                                                 F               0         ED TwrBsMyt, (kN-m)
         33    -1.135501452E-002                                                 F               0         ED TwrBsMzt, (kN-m)


Linearized state matrices:

A: 16 x 16
     0.000000000E+000   0.000000000E+000   0.000000000E+000   0.000000000E+000   0.000000000E+000   0.000000000E+000   0.000000000E+000   0.000000000E+000   1.000000000E+000   0.000000000E+000   0.000000000E+000   0.000000000E+000   0.000000000E+000   0.000000000E+000   0.000000000E+000   0.000000000E+000
     0.000000000E+000   0.000000000E+000   0.000000000E+000   0.000000000E+000   0.000000000E+000   0.000000000E+000   0.000000000E+000   0.000000000E+000   0.000000000E+000   1.000000000E+000   0.000000000E+000   0.000000000E+000   0.000000000E+000   0.000000000E+000   0.000000000E+000   0.000000000E+000
     0.000000000E+000   0.000000000E+000   0.000000000E+000   0.000000000E+000   0.000000000E+000   0.000000000E+000   0.000000000E+000   0.000000000E+000   0.000000000E+000   0.000000000E+000   1.000000000E+000   0.000000000E+000   0.000000000E+000   0.000000000E+000   0.000000000E+000   0.000000000E+000
     0.000000000E+000   0.000000000E+000   0.000000000E+000   0.000000000E+000   0.000000000E+000   0.000000000E+000   0.000000000E+000   0.000000000E+000   0.000000000E+000   0.000000000E+000   0.000000000E+000   1.000000000E+000   0.000000000E+000   0.000000000E+000   0.000000000E+000   0.000000000E+000
     0.000000000E+000   0.000000000E+000   0.000000000E+000   0.000000000E+000   0.000000000E+000   0.000000000E+000   0.000000000E+000   0.000000000E+000   0.000000000E+000   0.000000000E+000   0.000000000E+000   0.000000000E+000   1.000000000E+000   0.000000000E+000   0.000000000E+000   0.000000000E+000
     0.000000000E+000   0.000000000E+000   0.000000000E+000   0.000000000E+000   0.000000000E+000   0.000000000E+000   0.000000000E+000   0.000000000E+000   0.000000000E+000   0.000000000E+000   0.000000000E+000   0.000000000E+000   0.000000000E+000   1.000000000E+000   0.000000000E+000   0.000000000E+000
     0.000000000E+000   0.000000000E+000   0.000000000E+000   0.000000000E+000   0.000000000E+000   0.000000000E+000   0.000000000E+000   0.000000000E+000   0.000000000E+000   0.000000000E+000   0.000000000E+000   0.000000000E+000   0.000000000E+000   0.000000000E+000   1.000000000E+000   0.000000000E+000
     0.000000000E+000   0.000000000E+000   0.000000000E+000   0.000000000E+000   0.000000000E+000   0.000000000E+000   0.000000000E+000   0.000000000E+000   0.000000000E+000   0.000000000E+000   0.000000000E+000   0.000000000E+000   0.000000000E+000   0.000000000E+000   0.000000000E+000   1.000000000E+000
    -4.706707308E+000  -6.738418745E-002   9.102151876E-002   4.849230865E-002   1.893351048E-001  -4.268593003E-001  -3.522162618E-001  -7.321013586E-001  -1.523277450E-002  -1.598142427E-003   2.357578355E-004   9.559900284E-007   5.475648997E-004  -3.155899389E-004  -1.281591501E-004  -6.684901594E-004
    -7.005010850E-002  -4.112182403E+000   2.505070076E-002  -6.111225710E-003   3.245394013E-002  -1.394607867E-001   2.884815573E-002  -2.821544891E-001  -6.267311635E-004  -1.402129774E-002   4.974111527E-004  -3.772300758E-004  -3.486942821E-004  -7.673908890E-004   4.481650873E-004   1.355585536E-004
     9.550551092E+000   2.494968968E+000  -1.834766114E+001  -9.447801352E-002  -4.011864441E-001   6.856528506E+000   6.951400685E-001   1.641131744E+000   1.207807891E+000   8.978964409E-002  -4.133805838E-002   2.144536776E-004  -9.063923635E-004   2.411541254E-003   1.883422094E-006   1.272991973E-003
     4.827584956E+000  -6.116321386E-001  -8.943543057E-002  -1.820024270E+001  -1.892903241E-001   4.157812630E-001   6.280921971E+000   7.059868780E-001  -7.527259284E-001   1.473757097E-001  -1.600298644E-004  -4.063970204E-002  -6.207153205E-004   1.974044259E-004   1.537746336E-003   7.097521623E-004
     2.020493724E+001   3.042689034E+000  -4.066070213E-001  -2.035913131E-001  -1.898199572E+001   1.921567694E+000   1.489161110E+000   9.238451444E+000  -3.427247492E-001  -3.605834372E-002  -1.342846584E-003   2.485517598E-004  -4.268786729E-002   1.865570049E-003   2.487295507E-004   4.105423494E-003
    -9.412897652E+000  -2.966752769E+000   3.475987268E+000   9.227239444E-002   3.990641991E-001  -1.511195357E+002  -6.809106304E-001  -1.650978993E+000  -6.669022893E-001  -5.598246738E-002   1.397482195E-002  -2.579534772E-004   8.492571080E-004  -1.171440650E-001   5.372898085E-005  -1.236673448E-003
    -7.813115277E+000   6.102921876E-001   1.469330072E-001   3.359329899E+000   3.090897511E-001  -6.852035511E-001  -1.507648434E+002  -1.167637166E+000   3.901379066E-001  -8.093647090E-002   3.046004051E-004   1.323134821E-002   9.716369790E-004  -3.899066678E-004  -1.162780521E-001  -1.135250097E-003
    -1.608523688E+001  -6.031325707E+000   3.445033234E-001   1.560815756E-001   3.966501512E+000  -1.646617965E+000  -1.155601233E+000  -1.530588968E+002   1.681819645E-001   2.362745680E-003   1.502621681E-003  -5.290397518E-004   1.453106585E-002  -2.154724713E-003   1.970847048E-004  -1.180660966E-001
B: 16 x 6
     0.000000000E+000   0.000000000E+000   0.000000000E+000   0.000000000E+000   0.000000000E+000   0.000000000E+000
     0.000000000E+000   0.000000000E+000   0.000000000E+000   0.000000000E+000   0.000000000E+000   0.000000000E+000
     0.000000000E+000   0.000000000E+000   0.000000000E+000   0.000000000E+000   0.000000000E+000   0.000000000E+000
     0.000000000E+000   0.000000000E+000   0.000000000E+000   0.000000000E+000   0.000000000E+000   0.000000000E+000
     0.000000000E+000   0.000000000E+000   0.000000000E+000   0.000000000E+000   0.000000000E+000   0.000000000E+000
     0.000000000E+000   0.000000000E+000   0.000000000E+000   0.000000000E+000   0.000000000E+000   0.000000000E+000
     0.000000000E+000   0.000000000E+000   0.000000000E+000   0.000000000E+000   0.000000000E+000   0.000000000E+000
     0.000000000E+000   0.000000000E+000   0.000000000E+000   0.000000000E+000   0.000000000E+000   0.000000000E+000
     6.813025208E-004   4.633733243E-004   1.305361330E-003   0.000000000E+000   0.000000000E+000   2.450037175E-003
     2.049257174E-004  -5.528179560E-005   3.633447506E-004   0.000000000E+000   0.000000000E+000   5.129886724E-004
    -7.512273408E-002  -9.045811545E-004  -2.846032361E-003   0.000000000E+000   0.000000000E+000  -7.887334760E-002
    -6.665461436E-004  -7.405544394E-002  -1.281938170E-003   0.000000000E+000   0.000000000E+000  -7.600392825E-002
    -3.055148881E-003  -1.947524087E-003  -7.946787389E-002   0.000000000E+000   0.000000000E+000  -8.447054686E-002
     1.336279068E-001   8.838640494E-004   2.847486649E-003   0.000000000E+000   0.000000000E+000   1.373592575E-001
     1.096744155E-003   1.328629983E-001   2.106483487E-003   0.000000000E+000   0.000000000E+000   1.360662259E-001
     2.603211337E-003   1.495848722E-003   1.371059151E-001   0.000000000E+000   0.000000000E+000   1.412049752E-001
C: 33 x 16
     0.000000000E+000   0.000000000E+000   9.910331000E-001   0.000000000E+000   0.000000000E+000   1.012657885E+000   0.000000000E+000   0.000000000E+000   0.000000000E+000   0.000000000E+000   0.000000000E+000   0.000000000E+000   0.000000000E+000   0.000000000E+000   0.000000000E+000   0.000000000E+000
     0.000000000E+000   0.000000000E+000  -1.265685071E-001   0.000000000E+000   0.000000000E+000   4.159165584E-002   0.000000000E+000   0.000000000E+000   0.000000000E+000   0.000000000E+000   0.000000000E+000   0.000000000E+000   0.000000000E+000   0.000000000E+000   0.000000000E+000   0.000000000E+000
     0.000000000E+000   0.000000000E+000   0.000000000E+000   0.000000000E+000   0.000000000E+000   0.000000000E+000   0.000000000E+000   0.000000000E+000   0.000000000E+000   0.000000000E+000   0.000000000E+000   0.000000000E+000   0.000000000E+000   0.000000000E+000   0.000000000E+000   0.000000000E+000
     0.000000000E+000   0.000000000E+000   0.000000000E+000   0.000000000E+000   0.000000000E+000   0.000000000E+000   0.000000000E+000   0.000000000E+000   0.000000000E+000   0.000000000E+000   0.000000000E+000   0.000000000E+000   0.000000000E+000   0.000000000E+000   0.000000000E+000   0.000000000E+000
     0.000000000E+000   0.000000000E+000   0.000000000E+000   0.000000000E+000   0.000000000E+000   0.000000000E+000   0.000000000E+000   0.000000000E+000   0.000000000E+000   0.000000000E+000   0.000000000E+000   0.000000000E+000   0.000000000E+000   0.000000000E+000   0.000000000E+000   0.000000000E+000
     0.000000000E+000   0.000000000E+000   0.000000000E+000   0.000000000E+000   0.000000000E+000   0.000000000E+000   0.000000000E+000   0.000000000E+000   0.000000000E+000   0.000000000E+000   0.000000000E+000   0.000000000E+000   0.000000000E+000   0.000000000E+000   0.000000000E+000   0.000000000E+000
     0.000000000E+000   0.000000000E+000   0.000000000E+000   0.000000000E+000   0.000000000E+000   0.000000000E+000   0.000000000E+000   0.000000000E+000   0.000000000E+000   0.000000000E+000   0.000000000E+000   0.000000000E+000   0.000000000E+000   0.000000000E+000   0.000000000E+000   0.000000000E+000
     1.000000005E+000   0.000000000E+000   0.000000000E+000   0.000000000E+000   0.000000000E+000   0.000000000E+000   0.000000000E+000   0.000000000E+000   0.000000000E+000   0.000000000E+000   0.000000000E+000   0.000000000E+000   0.000000000E+000   0.000000000E+000   0.000000000E+000   0.000000000E+000
     0.000000000E+000  -1.000000005E+000   0.000000000E+000   0.000000000E+000   0.000000000E+000   0.000000000E+000   0.000000000E+000   0.000000000E+000   0.000000000E+000   0.000000000E+000   0.000000000E+000   0.000000000E+000   0.000000000E+000   0.000000000E+000   0.000000000E+000   0.000000000E+000
     0.000000000E+000   0.000000000E+000   0.000000000E+000   0.000000000E+000   0.000000000E+000   0.000000000E+000   0.000000000E+000   0.000000000E+000   0.000000000E+000   0.000000000E+000   0.000000000E+000   0.000000000E+000   0.000000000E+000   0.000000000E+000   0.000000000E+000   0.000000000E+000
    -1.211402918E+002   1.644571262E+002   3.126751763E+001   1.524303312E+000   3.675047420E+000  -5.826809281E+002  -1.044333425E+001  -7.877215522E+000  -7.321389837E+000   5.799618205E-002  -6.938083947E-001   1.527685644E-002   2.852381398E-002  -5.279042104E-001  -2.149010739E-002  -2.308104170E-002
    -2.039366651E+001  -5.517171165E+000   4.955423387E+002   2.014250551E-001   8.580316861E-001   4.526089824E+002  -1.482784092E+000  -3.516914381E+000  -1.013940041E+000  -8.896399519E-002   1.122092352E+000  -4.775579420E-004   1.916895367E-003   3.409097346E-001  -4.442399460E-005  -2.709863671E-003
     4.712302751E+001  -1.763925623E+000   4.215057891E+001  -4.895521429E-001  -1.878023261E+000  -1.932908440E+002   3.546567397E+000   7.168824951E+000   1.283005445E+000   8.427408782E-002   1.113426342E-001  -2.335036216E-004  -5.693767858E-003  -1.557810666E-001   1.543733812E-003   6.785765175E-003
     2.392498742E+001  -1.747795538E+001  -8.556174641E+000  -2.761108137E-001  -8.339606835E-001   7.459346215E+001   1.938127607E+000   2.545575062E+000   8.044735317E-001  -3.694155520E-003   3.836707794E-002  -1.639114032E-003  -4.331307208E-003   1.963834344E-002   2.623394957E-003   4.052688991E-003
    -5.069310352E+000   7.441407023E+001  -3.358187448E-001   1.760434058E-001  -3.330289179E-001   1.916984215E+000  -9.971409828E-001   4.126278315E+000  -2.023482562E-001   5.317879341E+000   2.200942389E-001   6.841295169E-003   7.063415142E-003  -2.823589097E-001  -8.262862996E-003  -3.198527611E-003
    -6.350171071E+002   6.881726342E+002   3.293132950E+002   7.701335375E+000   2.051826587E+001  -2.579939835E+003  -5.330186338E+001  -5.276723171E+001  -2.973850382E+001   2.949109110E-001  -1.717643895E+000   6.411104745E-002   1.343958588E-001  -1.081069882E+000  -9.361342789E-002  -1.148470887E-001
     4.462562494E+002  -1.276954100E+002   1.728368890E+003  -4.820536502E+000  -1.698483909E+001  -4.547960822E+003   3.450642665E+001   6.056571958E+001   1.748328854E+001   7.800138544E-001   4.455202455E+000  -1.239429449E-002  -6.356185148E-002  -3.689057360E+000   2.674324475E-002   6.805755973E-002
     1.148855223E-001  -1.431323888E-001   5.689584888E-002  -1.428670949E-003  -3.582349949E-003   3.470839757E-001   9.815886152E-003   8.305649290E-003   6.386391149E-003  -2.848501058E-005   5.859512415E-004  -9.188207428E-006  -2.448173155E-005   3.070065696E-004   5.908738344E-005   2.680515202E-005
    -1.039866815E+003   3.091498615E+003   3.352313885E+002   3.489027129E+002   3.524637048E+002  -2.645645766E+003  -2.755488179E+003  -2.608697085E+003  -3.062733678E+000   5.920017835E+000  -2.041306430E+000  -1.435119367E+000  -1.329657081E+000  -6.921188079E-001  -1.567279571E+000  -1.456346609E+000
     1.174492860E+001   1.101200418E+003   1.797806081E+003  -9.266951892E+002  -8.843847816E+002  -4.860142803E+003   2.661031750E+003   2.302047846E+003   2.631879724E+001   4.609334919E+000   4.945149139E+000  -2.311476784E+000  -2.571318836E+000  -4.305328184E+000   2.215206309E+000   2.137686438E+000
    -4.176807022E+002   2.163164143E+002   3.706582626E+001   1.552176646E+003  -1.562573851E+003  -2.857035478E+002  -4.146391367E+003   4.318011565E+003  -1.004357113E+001   3.188107319E+000  -1.518672432E-001   4.491260857E+000  -4.256757695E+000  -7.951305028E-002  -3.895510239E+000   3.885363521E+000
     1.589362343E+003   3.649671882E+000   1.148548285E+001   2.677099198E+001  -2.055602182E+001  -4.662530904E+001  -8.096382966E+001   4.652715978E+001   5.238695732E+000  -1.430290174E-002   2.528783833E-002   8.317181741E-002  -6.562076480E-002  -3.544683368E-002  -8.051059454E-002   5.610819931E-002
    -1.710211174E+001  -1.491824620E+003   8.508253368E+000   5.179033696E+000   4.378002993E+000  -5.401887776E+001  -5.038393993E+001  -3.542841612E+001   1.840633084E-002  -5.193436469E+000  -5.639833485E-002  -1.539999203E-002  -1.249833731E-002   1.642307820E-002  -4.810902786E-002  -3.309912698E-002
     1.989789301E+001   2.672732598E+000  -1.251198698E+001  -1.288477531E-001  -2.135223683E-002   9.219068378E+001  -2.149374460E+001  -1.250678715E+001   1.170180377E+000   7.928699521E-002  -1.402030705E-002  -2.109194345E-001   1.947299427E-001   8.778281114E-002   2.302246189E-001  -2.751811808E-001
    -9.987999748E+002   6.008321033E+003   4.717067688E+002   2.322163031E+002   2.930198155E+002  -2.944511210E+003  -2.337785173E+003  -2.421422228E+003  -7.301795683E-001   1.615774451E+001  -1.421038904E+000  -1.707069179E+000  -1.494797728E+000  -1.186746062E+000  -1.150827788E+000  -1.235985462E+000
     3.655341656E+003  -3.932851686E+002  -3.550913308E+002  -1.304264599E+003   1.661251697E+003   1.274467009E+003   3.345905813E+003  -4.644087239E+003   1.945608268E+001  -3.881553543E+000  -6.788611088E-001  -4.488000691E+000   5.137654411E+000   9.949089374E-001   3.973891866E+000  -4.976168332E+000
     1.403808493E+002   2.808211118E+002   1.732845407E+003  -1.231983846E+003  -6.008989951E+002  -4.493944088E+003   3.760656400E+003   1.496860456E+003   2.729031369E+001   2.104683893E+000   5.848214539E+000  -3.341544554E+000  -2.063985712E+000  -5.153994806E+000   3.690319973E+000   1.821999467E+000
     2.037593546E+003   1.006683549E+001   2.817275059E+000   2.215295115E+001  -3.858688606E+001  -5.974428938E+000  -4.742139813E+001   1.162469765E+002   6.689350747E+000   1.378921824E-001   2.836029551E-003   8.308071352E-002  -1.177666995E-001  -5.392396173E-003  -6.830566600E-002   1.197701262E-001
    -2.382833167E+001  -1.886676927E+003   1.091362498E+001   4.592233264E+000   7.494233488E+000  -6.740991342E+001  -4.761394283E+001  -6.252091954E+001  -4.177243044E-002  -6.539762974E+000  -8.636867262E-003  -5.162167086E-002  -4.597998840E-002  -5.726186745E-002  -5.076166690E-003  -2.008278539E-002
     1.989700025E+001   2.672769634E+000  -1.251198809E+001  -1.288536184E-001  -2.134461447E-002   9.219068378E+001  -2.149372933E+001  -1.250680937E+001   1.170110691E+000   7.931238121E-002  -1.402030814E-002  -2.109194693E-001   1.947299600E-001   8.778281656E-002   2.302246406E-001  -2.751811808E-001