
Linearized model: Predictions were generated on 17-Jan-2026 at 06:32:31 using OpenFAST, compiled as a 64-bit application using single precision at commit v3.5.1
 linked with  NWTC Subroutine Library; ElastoDyn

Description from the FAST input file: FAST Certification Test #18: NREL 5.0 MW Baseline Wind Turbine (Onshore)

Simulation information:
   Simulation time:                   244.3188 s
   Rotor Speed:                         0.8901 rad/s
   Azimuth:                             3.8442 rad
   Wind Speed:                          0.0000 m/s
   Number of continuous states:        16
   Number of discrete states:           0
   Number of constraint states:         0
   Number of inputs:                    6
   Number of outputs:                  33
   Jacobians included in this file?    No

Order of continuous states:
   Row/Column Operating Point                                             Rotating Frame? Derivative Order Description
   ---------- ---------------                                             --------------- ---------------- -----------
          1     3.059381561E-005                                                 F               2         ED 1st tower fore-aft bending mode DOF (internal DOF index = DOF_TFA1), m
          2     6.680905244E-006                                                 F               2         ED 1st tower side-to-side bending mode DOF (internal DOF index = DOF_TSS1), m
          3     1.810297221E-001                                                 T               2         ED 1st flapwise bending-mode DOF of blade 1 (internal DOF index = DOF_BF(1,1)), m
          4     1.810707897E-001                                                 T               2         ED 1st flapwise bending-mode DOF of blade 2 (internal DOF index = DOF_BF(2,1)), m
          5     1.810412109E-001                                                 T               2         ED 1st flapwise bending-mode DOF of blade 3 (internal DOF index = DOF_BF(3,1)), m
          6    -9.884426370E-003                                                 T               2         ED 2nd flapwise bending-mode DOF of blade 1 (internal DOF index = DOF_BF(1,2)), m
          7    -9.885594249E-003                                                 T               2         ED 2nd flapwise bending-mode DOF of blade 2 (internal DOF index = DOF_BF(2,2)), m
          8    -9.884368628E-003                                                 T               2         ED 2nd flapwise bending-mode DOF of blade 3 (internal DOF index = DOF_BF(3,2)), m
          9    -1.141124631E-005                                                 F               2         ED First time derivative of 1st tower fore-aft bending mode DOF (internal DOF index = DOF_TFA1), m/s
         10    -1.026550308E-005                                                 F               2         ED First time derivative of 1st tower side-to-side bending mode DOF (internal DOF index = DOF_TSS1), m/s
         11     4.149170491E-005                                                 T               2         ED First time derivative of 1st flapwise bending-mode DOF of blade 1 (internal DOF index = DOF_BF(1,1)), m/s
         12     1.568556399E-005                                                 T               2         ED First time derivative of 1st flapwise bending-mode DOF of blade 2 (internal DOF index = DOF_BF(2,1)), m/s
         13    -6.814802327E-005                                                 T               2         ED First time derivative of 1st flapwise bending-mode DOF of blade 3 (internal DOF index = DOF_BF(3,1)), m/s
         14    -7.925617069E-007                                                 T               2         ED First time derivative of 2nd flapwise bending-mode DOF of blade 1 (internal DOF index = DOF_BF(1,2)), m/s
         15     1.393684215E-006                                                 T               2         ED First time derivative of 2nd flapwise bending-mode DOF of blade 2 (internal DOF index = DOF_BF(2,2)), m/s
         16     2.554004368E-006                                                 T               2         ED First time derivative of 2nd flapwise bending-mode DOF of blade 3 (internal DOF index = DOF_BF(3,2)), m/s

Order of continuous state derivatives:
   Row/Column Operating Point                                             Rotating Frame? Derivative Order Description
   ---------- ---------------                                             --------------- ---------------- -----------
          1    -1.141124631E-005                                                 F               2         First time derivative of ED 1st tower fore-aft bending mode DOF (internal DOF index = DOF_TFA1), m/s
          2    -1.026550308E-005                                                 F               2         First time derivative of ED 1st tower side-to-side bending mode DOF (internal DOF index = DOF_TSS1), m/s
          3     4.149170491E-005                                                 T               2         First time derivative of ED 1st flapwise bending-mode DOF of blade 1 (internal DOF index = DOF_BF(1,1)), m/s
          4     1.568556399E-005                                                 T               2         First time derivative of ED 1st flapwise bending-mode DOF of blade 2 (internal DOF index = DOF_BF(2,1)), m/s
          5    -6.814802327E-005                                                 T               2         First time derivative of ED 1st flapwise bending-mode DOF of blade 3 (internal DOF index = DOF_BF(3,1)), m/s
          6    -7.925617069E-007                                                 T               2         First time derivative of ED 2nd flapwise bending-mode DOF of blade 1 (internal DOF index = DOF_BF(1,2)), m/s
          7     1.393684215E-006                                                 T               2         First time derivative of ED 2nd flapwise bending-mode DOF of blade 2 (internal DOF index = DOF_BF(2,2)), m/s
          8     2.554004368E-006                                                 T               2         First time derivative of ED 2nd flapwise bending-mode DOF of blade 3 (internal DOF index = DOF_BF(3,2)), m/s
          9    -1.306885970E-004                                                 F               2         First time derivative of ED First time derivative of 1st tower fore-aft bending mode DOF (internal DOF index = DOF_TFA1), m/s/s
         10    -2.657642654E-005                                                 F               2         First time derivative of ED First time derivative of 1st tower side-to-side bending mode DOF (internal DOF index = DOF_TSS1), m/s/s
         11     5.360151772E-005                                                 T               2         First time derivative of ED First time derivative of 1st flapwise bending-mode DOF of blade 1 (internal DOF index = DOF_BF(1,1)), m/s/s
         12    -2.882339468E-004                                                 T               2         First time derivative of ED First time derivative of 1st flapwise bending-mode DOF of blade 2 (internal DOF index = DOF_BF(2,1)), m/s/s
         13    -4.337587234E-005                                                 T               2         First time derivative of ED First time derivative of 1st flapwise bending-mode DOF of blade 3 (internal DOF index = DOF_BF(3,1)), m/s/s
         14     5.992652859E-006                                                 T               2         First time derivative of ED First time derivative of 2nd flapwise bending-mode DOF of blade 1 (internal DOF index = DOF_BF(1,2)), m/s/s
         15     1.364378204E-005                                                 T               2         First time derivative of ED First time derivative of 2nd flapwise bending-mode DOF of blade 2 (internal DOF index = DOF_BF(2,2)), m/s/s
         16     4.546119726E-006                                                 T               2         First time derivative of ED First time derivative of 2nd flapwise bending-mode DOF of blade 3 (internal DOF index = DOF_BF(3,2)), m/s/s

Order of inputs:
     Column   Operating Point                                             Rotating Frame? Derivative Order Description
   ---------- ---------------                                             --------------- ---------------- -----------
          1     0.000000000E+000                                                 T               0         ED Blade 1 pitch command, rad
          2     0.000000000E+000                                                 T               0         ED Blade 2 pitch command, rad
          3     0.000000000E+000                                                 T               0         ED Blade 3 pitch command, rad
          4     0.000000000E+000                                                 F               0         ED Yaw moment, Nm
          5     0.000000000E+000                                                 F               0         ED Generator torque, Nm
          6     0.000000000E+000                                                 F               0         ED Extended input: collective blade-pitch command, rad

Order of outputs:
        Row   Operating Point                                             Rotating Frame? Derivative Order Description
   ---------- ---------------                                             --------------- ---------------- -----------
          1     1.693968922E-001                                                 T               0         ED OoPDefl1, (m)
          2    -2.332377248E-002                                                 T               0         ED IPDefl1, (m)
          3     0.000000000E+000                                                 T               0         ED TwstDefl1, (deg)
          4     0.000000000E+000                                                 T               0         ED BldPitch1, (deg)
          5     2.202565765E+002                                                 F               0         ED Azimuth, (deg)
          6     8.500000000E+000                                                 F               0         ED RotSpeed, (rpm)
          7     8.245000000E+002                                                 F               0         ED GenSpeed, (rpm)
          8     3.059381561E-005                                                 F               0         ED TTDspFA, (m)
          9    -6.680905244E-006                                                 F               0         ED TTDspSS, (m)
         10     0.000000000E+000                                                 F               0         ED TTDspTwst, (deg)
         11    -9.887040138E+000                                                 T               0         ED Spn2MLxb1, (kN-m)
         12     8.202153015E+001                                                 T               0         ED Spn2MLyb1, (kN-m)
         13     1.341381550E+001                                                 T               0         ED RootFxb1, (kN)
         14    -5.610647425E-002                                                 T               0         ED RootFyb1, (kN)
         15     3.071900635E+002                                                 T               0         ED RootFzb1, (kN)
         16    -7.508167624E-002                                                 T               0         ED RootMxb1, (kN-m)
         17     4.108175049E+002                                                 T               0         ED RootMyb1, (kN-m)
         18     9.760411829E-002                                                 T               0         ED RootMzb1, (kN-m)
         19     2.786460146E-002                                                 F               0         ED RotTorq, (kN-m)
         20    -6.300874799E-002                                                 F               0         ED LSSGagMya, (kN-m)
         21     5.098513514E-002                                                 F               0         ED LSSGagMza, (kN-m)
         22     4.801731929E-002                                                 F               0         ED YawBrFxp, (kN)
         23    -9.810612537E-003                                                 F               0         ED YawBrFyp, (kN)
         24     3.330957843E-004                                                 F               0         ED YawBrFzp, (kN)
         25     4.663043097E-002                                                 F               0         ED YawBrMxp, (kN-m)
         26     1.791650951E-001                                                 F               0         ED YawBrMyp, (kN-m)
         27    -3.297657939E-003                                                 F               0         ED YawBrMzp, (kN-m)
         28     6.047084555E-002                                                 F               0         ED TwrBsFxt, (kN)
         29    -1.236946601E-002                                                 F               0         ED TwrBsFyt, (kN)
         30     3.330629843E-004                                                 F               0         ED TwrBsFzt, (kN)
         31     1.065740824E+000                                                 F               0         ED TwrBsMxt, (kN-m)
         32     5.168376923E+000                                                 F               0         ED TwrBsMyt, (kN-m)
         33    -3.297635820E-003                                                 F               0         ED TwrBsMzt, (kN-m)


Linearized state matrices:

A: 16 x 16
     0.000000000E+000   0.000000000E+000   0.000000000E+000   0.000000000E+000   0.000000000E+000   0.000000000E+000   0.000000000E+000   0.000000000E+000   1.000000000E+000   0.000000000E+000   0.000000000E+000   0.000000000E+000   0.000000000E+000   0.000000000E+000   0.000000000E+000   0.000000000E+000
     0.000000000E+000   0.000000000E+000   0.000000000E+000   0.000000000E+000   0.000000000E+000   0.000000000E+000   0.000000000E+000   0.000000000E+000   0.000000000E+000   1.000000000E+000   0.000000000E+000   0.000000000E+000   0.000000000E+000   0.000000000E+000   0.000000000E+000   0.000000000E+000
     0.000000000E+000   0.000000000E+000   0.000000000E+000   0.000000000E+000   0.000000000E+000   0.000000000E+000   0.000000000E+000   0.000000000E+000   0.000000000E+000   0.000000000E+000   1.000000000E+000   0.000000000E+000   0.000000000E+000   0.000000000E+000   0.000000000E+000   0.000000000E+000
     0.000000000E+000   0.000000000E+000   0.000000000E+000   0.000000000E+000   0.000000000E+000   0.000000000E+000   0.000000000E+000   0.000000000E+000   0.000000000E+000   0.000000000E+000   0.000000000E+000   1.000000000E+000   0.000000000E+000   0.000000000E+000   0.000000000E+000   0.000000000E+000
     0.000000000E+000   0.000000000E+000   0.000000000E+000   0.000000000E+000   0.000000000E+000   0.000000000E+000   0.000000000E+000   0.000000000E+000   0.000000000E+000   0.000000000E+000   0.000000000E+000   0.000000000E+000   1.000000000E+000   0.000000000E+000   0.000000000E+000   0.000000000E+000
     0.000000000E+000   0.000000000E+000   0.000000000E+000   0.000000000E+000   0.000000000E+000   0.000000000E+000   0.000000000E+000   0.000000000E+000   0.000000000E+000   0.000000000E+000   0.000000000E+000   0.000000000E+000   0.000000000E+000   1.000000000E+000   0.000000000E+000   0.000000000E+000
     0.000000000E+000   0.000000000E+000   0.000000000E+000   0.000000000E+000   0.000000000E+000   0.000000000E+000   0.000000000E+000   0.000000000E+000   0.000000000E+000   0.000000000E+000   0.000000000E+000   0.000000000E+000   0.000000000E+000   0.000000000E+000   1.000000000E+000   0.000000000E+000
     0.000000000E+000   0.000000000E+000   0.000000000E+000   0.000000000E+000   0.000000000E+000   0.000000000E+000   0.000000000E+000   0.000000000E+000   0.000000000E+000   0.000000000E+000   0.000000000E+000   0.000000000E+000   0.000000000E+000   0.000000000E+000   0.000000000E+000   1.000000000E+000
    -4.706769363E+000  -6.738803375E-002   5.133921084E-002   1.932146177E-001   9.353777275E-002  -3.610918458E-001  -7.435010901E-001  -4.337766415E-001  -1.417370860E-002  -4.016807879E-003  -1.934489523E-004   7.671200021E-004   2.825293199E-004   1.327899117E-004  -8.635756930E-004  -2.924800320E-004
    -7.005179080E-002  -4.112168376E+000  -6.448448882E-003   3.292072193E-002   2.500237652E-002   2.986202651E-002  -2.893908767E-001  -1.417101900E-001  -1.295508644E-003  -1.395013060E-002  -1.044959285E-003  -1.077631442E-003   1.321036652E-003   1.241497412E-003   7.901664223E-004  -1.970298055E-003
     4.858939327E+000  -5.949479763E-001  -1.938359651E+001  -1.946045981E-001  -9.274544166E-002   5.716504477E+000   7.225499070E-001   4.259380094E-001  -2.174354963E+000   4.108420780E-001  -4.078946331E-002  -9.679501585E-004  -7.881479899E-005  -3.614330034E-003   1.021291279E-003  -1.583331717E-005
     2.021353881E+001   3.058275343E+000  -2.156221276E-001  -2.017943883E+001  -4.176058826E-001   1.527002174E+000   8.718528024E+000   1.953977277E+000  -1.081359363E+000  -1.317471625E-001   1.532620458E-003  -4.338096593E-002  -2.100227310E-003  -1.405092435E-003  -5.242647098E-004   2.580138920E-003
     9.514454327E+000   2.462795005E+000  -9.969742389E-002  -4.075747395E-001  -1.953187718E+001   7.099846441E-001   1.660451703E+000   6.291447634E+000   3.361034140E+000   2.303086895E-001   9.807764400E-004  -9.343756019E-004  -4.213662700E-002  -9.698930483E-004   1.291223946E-003  -1.983602373E-003
    -7.825858497E+000   6.084775308E-001   2.284324851E+000   3.159886061E-001   1.513855912E-001  -1.546771599E+002  -1.187426489E+000  -6.975278097E-001   1.159363806E+000  -2.397197763E-001   2.126310699E-002   1.466338876E-003   2.389722189E-004  -1.157325834E-001  -1.576585260E-003  -1.417555007E-004
    -1.608958359E+001  -6.036766081E+000   1.653109272E-001   2.900611203E+000   3.530947170E-001  -1.184587672E+000  -1.570052984E+002  -1.673845010E+000   5.680976296E-001   3.780286561E-002  -2.133066481E-003   2.248607510E-002   2.825623543E-003   2.204565817E-003  -1.175593107E-001  -3.776414272E-003
    -9.394756047E+000  -2.959684676E+000   9.751709235E-002   4.063050153E-001   2.400621143E+000  -6.965283586E-001  -1.675299209E+000  -1.550293891E+002  -1.829856408E+000  -1.477935000E-001  -1.102240411E-003   7.827873067E-004   2.287075583E-002   1.116845268E-003  -1.171872374E-003  -1.176669425E-001
B: 16 x 6
     0.000000000E+000   0.000000000E+000   0.000000000E+000   0.000000000E+000   0.000000000E+000   0.000000000E+000
     0.000000000E+000   0.000000000E+000   0.000000000E+000   0.000000000E+000   0.000000000E+000   0.000000000E+000
     0.000000000E+000   0.000000000E+000   0.000000000E+000   0.000000000E+000   0.000000000E+000   0.000000000E+000
     0.000000000E+000   0.000000000E+000   0.000000000E+000   0.000000000E+000   0.000000000E+000   0.000000000E+000
     0.000000000E+000   0.000000000E+000   0.000000000E+000   0.000000000E+000   0.000000000E+000   0.000000000E+000
     0.000000000E+000   0.000000000E+000   0.000000000E+000   0.000000000E+000   0.000000000E+000   0.000000000E+000
     0.000000000E+000   0.000000000E+000   0.000000000E+000   0.000000000E+000   0.000000000E+000   0.000000000E+000
     0.000000000E+000   0.000000000E+000   0.000000000E+000   0.000000000E+000   0.000000000E+000   0.000000000E+000
     3.591290821E-003   1.010641912E-002   5.030374089E-003   0.000000000E+000   0.000000000E+000   1.872808403E-002
    -9.190471469E-004   3.413586633E-003   1.442305745E-003   0.000000000E+000   0.000000000E+000   3.936845231E-003
    -5.557749897E-001  -9.905697803E-003  -4.971971152E-003   0.000000000E+000   0.000000000E+000  -5.706526586E-001
    -1.476806895E-002  -5.975173634E-001  -2.252425625E-002   0.000000000E+000   0.000000000E+000  -6.348096886E-001
    -6.709225457E-003  -2.227620219E-002  -5.629447352E-001   0.000000000E+000   0.000000000E+000  -5.919301628E-001
     1.034887931E+000   1.623185464E-002   8.124252932E-003   0.000000000E+000   0.000000000E+000   1.059244038E+000
     1.090293432E-002   1.067950014E+000   1.912709264E-002   0.000000000E+000   0.000000000E+000   1.097980041E+000
     6.499951779E-003   2.241494592E-002   1.039816746E+000   0.000000000E+000   0.000000000E+000   1.068731644E+000
C: 33 x 16
     0.000000000E+000   0.000000000E+000   9.910330306E-001   0.000000000E+000   0.000000000E+000   1.012657798E+000   0.000000000E+000   0.000000000E+000   0.000000000E+000   0.000000000E+000   0.000000000E+000   0.000000000E+000   0.000000000E+000   0.000000000E+000   0.000000000E+000   0.000000000E+000
     0.000000000E+000   0.000000000E+000  -1.265685071E-001   0.000000000E+000   0.000000000E+000   4.159166127E-002   0.000000000E+000   0.000000000E+000   0.000000000E+000   0.000000000E+000   0.000000000E+000   0.000000000E+000   0.000000000E+000   0.000000000E+000   0.000000000E+000   0.000000000E+000
     0.000000000E+000   0.000000000E+000   0.000000000E+000   0.000000000E+000   0.000000000E+000   0.000000000E+000   0.000000000E+000   0.000000000E+000   0.000000000E+000   0.000000000E+000   0.000000000E+000   0.000000000E+000   0.000000000E+000   0.000000000E+000   0.000000000E+000   0.000000000E+000
     0.000000000E+000   0.000000000E+000   0.000000000E+000   0.000000000E+000   0.000000000E+000   0.000000000E+000   0.000000000E+000   0.000000000E+000   0.000000000E+000   0.000000000E+000   0.000000000E+000   0.000000000E+000   0.000000000E+000   0.000000000E+000   0.000000000E+000   0.000000000E+000
     0.000000000E+000   0.000000000E+000   0.000000000E+000   0.000000000E+000   0.000000000E+000   0.000000000E+000   0.000000000E+000   0.000000000E+000   0.000000000E+000   0.000000000E+000   0.000000000E+000   0.000000000E+000   0.000000000E+000   0.000000000E+000   0.000000000E+000   0.000000000E+000
     0.000000000E+000   0.000000000E+000   0.000000000E+000   0.000000000E+000   0.000000000E+000   0.000000000E+000   0.000000000E+000   0.000000000E+000   0.000000000E+000   0.000000000E+000   0.000000000E+000   0.000000000E+000   0.000000000E+000   0.000000000E+000   0.000000000E+000   0.000000000E+000
     0.000000000E+000   0.000000000E+000   0.000000000E+000   0.000000000E+000   0.000000000E+000   0.000000000E+000   0.000000000E+000   0.000000000E+000   0.000000000E+000   0.000000000E+000   0.000000000E+000   0.000000000E+000   0.000000000E+000   0.000000000E+000   0.000000000E+000   0.000000000E+000
     1.000000005E+000   0.000000000E+000   0.000000000E+000   0.000000000E+000   0.000000000E+000   0.000000000E+000   0.000000000E+000   0.000000000E+000   0.000000000E+000   0.000000000E+000   0.000000000E+000   0.000000000E+000   0.000000000E+000   0.000000000E+000   0.000000000E+000   0.000000000E+000
     0.000000000E+000  -1.000000005E+000   0.000000000E+000   0.000000000E+000   0.000000000E+000   0.000000000E+000   0.000000000E+000   0.000000000E+000   0.000000000E+000   0.000000000E+000   0.000000000E+000   0.000000000E+000   0.000000000E+000   0.000000000E+000   0.000000000E+000   0.000000000E+000
     0.000000000E+000   0.000000000E+000   0.000000000E+000   0.000000000E+000   0.000000000E+000   0.000000000E+000   0.000000000E+000   0.000000000E+000   0.000000000E+000   0.000000000E+000   0.000000000E+000   0.000000000E+000   0.000000000E+000   0.000000000E+000   0.000000000E+000   0.000000000E+000
    -7.372300477E+000   5.326781978E+001   2.921263245E+001  -8.732646739E-002  -1.599841318E-001  -5.901393170E+002   2.449117034E+000   1.078370257E+000   1.290837162E+001  -2.306732695E+000  -1.889532408E+000   1.535293253E-002  -1.664122838E-002  -6.392390703E-001  -1.148360260E-002   2.481080099E-002
    -1.933324063E+001   2.579129376E+000   4.941779179E+002   7.727642709E-001   3.678129057E-001   4.580433696E+002  -2.860372164E+000  -1.687578707E+000   1.703617624E+000  -3.589124125E-001   1.132296544E+000   3.944850721E-003   2.310047719E-004   3.280267761E-001  -3.909311525E-003   3.553919568E-004
     3.865144861E+001  -1.145148289E+000   4.383387070E+001  -1.574233106E+000  -7.583620118E-001  -1.980634248E+002   5.990553460E+000   3.506230410E+000  -1.986228402E+000   4.443209667E-001   1.435428114E-001  -6.752447179E-003  -1.772517385E-003  -1.716987391E-001   7.441019096E-003   1.577051808E-003
    -4.826933171E+000   2.402127672E+001  -8.275101806E+000   2.211632086E-002  -4.240425595E-002   7.437727278E+001   8.685154712E-001   3.474255719E-001  -1.363518446E+000   3.342601244E-001   1.372269601E-001   7.138970639E-003  -7.424620395E-003  -5.260902884E-002  -5.029368842E-003   1.114799321E-002
    -1.604065276E+001  -4.911498672E+001   4.712497347E-002   1.015781291E+000   5.995462311E-001  -1.069729790E+000  -5.843354554E+000  -3.086223753E+000   2.884273541E-001   1.414441756E+001   6.350143484E-001  -1.037744514E-002   1.663234358E-002  -8.237985559E-001   6.397055223E-003  -2.416665306E-002
     2.904516358E+001  -1.229418010E+002   3.198730185E+002  -2.908655320E-001   1.311682387E-001  -2.596441394E+003  -3.762729002E+000  -1.381421117E+000   5.166465896E+001  -1.027416604E+001  -5.673646010E+000  -3.739861751E-002   3.775805274E-002   5.337345126E-001   2.933024831E-002  -5.717003690E-002
     2.738682598E+002  -1.843390119E+001   1.746499139E+003  -1.107891778E+001  -5.314175930E+000  -4.595361580E+003   4.174860395E+001   2.450498621E+001  -2.902686983E+001   6.033521000E+000   5.409278818E+000  -5.046565787E-002  -9.240190877E-003  -4.014507544E+000   5.473036135E-002   5.686271309E-003
     3.422769836E-002  -1.977018416E-001   4.626570236E-001   3.902717338E-005   4.416022713E-004   2.636092769E+000  -8.102173078E-003  -4.027486292E-003  -8.386961742E-002   1.484857129E-002   1.168942800E-002  -3.727450797E-005  -1.849842900E-005   2.598630153E-003  -4.742608486E-004  -4.858874410E-006
    -1.039926447E+003   3.091797022E+003   3.494174626E+002   3.526098064E+002   3.354498835E+002  -2.816099567E+003  -2.663635884E+003  -2.703324459E+003  -2.311733752E+000  -2.514608551E+000  -5.090828189E+000  -4.843192739E+000  -6.768476467E+000  -3.426888201E-001  -2.371335913E-001   1.978185382E+000
    -3.663496777E+002  -3.668048054E+002   1.822885523E+003  -9.189187867E+002  -8.735668637E+002  -4.960396031E+003   2.609634609E+003   2.197748481E+003  -5.977400781E+001   3.552402599E+000   6.760222489E+000  -3.041524607E+000  -3.723789149E+000  -5.767261457E+000   2.848505058E+000   2.845587651E+000
     1.999195781E+002  -1.059157640E+003   2.694596921E+001   1.559813308E+003  -1.589122625E+003  -2.345465637E+002  -4.184998306E+003   4.387152004E+003  -5.143899761E+001  -9.176371005E+000  -7.552560805E-001   5.879922720E+000  -5.371756646E+000   4.274474158E-001  -4.909308832E+000   4.546848601E+000
     1.589369454E+003   3.649984494E+000   2.702608344E+001  -2.065336368E+001   1.182687125E+001  -8.160106965E+001   4.674627558E+001  -4.765991611E+001   5.055116852E+000  -5.848532321E-002   1.231608310E-001  -1.007974190E-001   2.538568392E-002  -1.140628577E-001   9.353992657E-002  -3.497391770E-002
    -1.710323256E+001  -1.491822000E+003   5.177775387E+000   4.362718918E+000   8.538074085E+000  -5.156370795E+001  -3.618206641E+001  -5.511106943E+001   1.543651531E-001  -5.363360332E+000  -5.670201883E-002  -4.797068659E-002  -1.878704094E-001  -6.162245779E-002  -4.004838297E-002   1.264678785E-001
     1.987080421E+001   2.673037900E+000  -1.138638434E-001  -9.970497054E-002  -1.280232666E+001  -2.238035591E+001  -1.288236010E+001   9.449194666E+001   3.193587649E+000   2.027020917E-001  -5.899832722E-001   5.560399738E-001   9.353055317E-004   6.824252667E-001  -7.627615491E-001   1.198247235E-001
    -9.988583588E+002   6.008484708E+003   2.312895120E+002   2.934884353E+002   4.730094935E+002  -2.391657263E+003  -2.476106033E+003  -3.002577991E+003   4.058908696E+000   8.206249241E+000  -5.400969865E+000  -5.066990829E+000  -5.597277831E+000   2.419011449E-001   1.143230677E-001   9.886136582E-001
     3.654764552E+003  -3.933131131E+002  -1.309747586E+003   1.677804291E+003  -3.661965831E+002   3.354467205E+003  -4.689112557E+003   1.310184612E+003   3.245230332E+001  -8.539164440E+000  -7.213279487E+000   7.676333550E+000  -5.479439437E-001   6.545408458E+000  -7.565359080E+000   1.036684238E+000
     1.403708067E+002   2.793289806E+002  -1.248467493E+003  -5.976232763E+002   1.745904071E+003   3.813736321E+003   1.486222331E+003  -4.520064686E+003   7.655103061E+001   4.174023408E+000  -4.457086033E+000  -3.280815842E+000   9.294166031E+000   5.151128764E+000   3.025151172E+000  -8.300953795E+000
     2.037606770E+003   1.006751383E+001   2.213692075E+001  -3.905367118E+001   2.919035715E+000  -4.721341609E+001   1.175517093E+002  -6.350230944E+000   6.404915467E+000   3.240452976E-001   1.415831232E-001  -1.738518452E-001  -1.520298420E-003  -1.267084254E-001   1.757801936E-001  -7.120420150E-003
    -2.382961818E+001  -1.886672685E+003   4.558594860E+000   7.523771002E+000   1.093880561E+001  -4.869635012E+001  -6.396940831E+001  -6.871811121E+001   2.996979461E-002  -6.702853723E+000  -1.570390639E-001  -1.514450765E-001  -6.102427829E-002   5.758616478E-002   3.582356998E-002  -6.272036818E-002
     1.986872046E+001   2.672563988E+000  -1.138768148E-001  -9.968612505E-002  -1.280232888E+001  -2.238032815E+001  -1.288241702E+001   9.449194666E+001   3.193559872E+000   2.026796752E-001  -5.899833416E-001   5.560400432E-001   9.352848571E-004   6.824253100E-001  -7.627617226E-001   1.198247452E-001