
Linearized model: Predictions were generated on 17-Jan-2026 at 06:32:31 using OpenFAST, compiled as a 64-bit application using single precision at commit v3.5.1
 linked with  NWTC Subroutine Library; ElastoDyn

Description from the FAST input file: FAST Certification Test #18: NREL 5.0 MW Baseline Wind Turbine (Onshore)

Simulation information:
   Simulation time:                   241.1813 s
   Rotor Speed:                         0.8901 rad/s
   Azimuth:                             1.0515 rad
   Wind Speed:                          0.0000 m/s
   Number of continuous states:        16
   Number of discrete states:           0
   Number of constraint states:         0
   Number of inputs:                    6
   Number of outputs:                  33
   Jacobians included in this file?    No

Order of continuous states:
   Row/Column Operating Point                                             Rotating Frame? Derivative Order Description
   ---------- ---------------                                             --------------- ---------------- -----------
          1     3.298030424E-005                                                 F               2         ED 1st tower fore-aft bending mode DOF (internal DOF index = DOF_TFA1), m
          2     7.201584594E-006                                                 F               2         ED 1st tower side-to-side bending mode DOF (internal DOF index = DOF_TSS1), m
          3     1.810635775E-001                                                 T               2         ED 1st flapwise bending-mode DOF of blade 1 (internal DOF index = DOF_BF(1,1)), m
          4     1.810227633E-001                                                 T               2         ED 1st flapwise bending-mode DOF of blade 2 (internal DOF index = DOF_BF(2,1)), m
          5     1.810586303E-001                                                 T               2         ED 1st flapwise bending-mode DOF of blade 3 (internal DOF index = DOF_BF(3,1)), m
          6    -9.885198437E-003                                                 T               2         ED 2nd flapwise bending-mode DOF of blade 1 (internal DOF index = DOF_BF(1,2)), m
          7    -9.884119965E-003                                                 T               2         ED 2nd flapwise bending-mode DOF of blade 2 (internal DOF index = DOF_BF(2,2)), m
          8    -9.885562584E-003                                                 T               2         ED 2nd flapwise bending-mode DOF of blade 3 (internal DOF index = DOF_BF(3,2)), m
          9     2.335530780E-006                                                 F               2         ED First time derivative of 1st tower fore-aft bending mode DOF (internal DOF index = DOF_TFA1), m/s
         10    -1.053118558E-005                                                 F               2         ED First time derivative of 1st tower side-to-side bending mode DOF (internal DOF index = DOF_TSS1), m/s
         11    -4.898285988E-005                                                 T               2         ED First time derivative of 1st flapwise bending-mode DOF of blade 1 (internal DOF index = DOF_BF(1,1)), m/s
         12    -5.304187198E-006                                                 T               2         ED First time derivative of 1st flapwise bending-mode DOF of blade 2 (internal DOF index = DOF_BF(2,1)), m/s
         13     7.285473839E-005                                                 T               2         ED First time derivative of 1st flapwise bending-mode DOF of blade 3 (internal DOF index = DOF_BF(3,1)), m/s
         14     2.305440148E-006                                                 T               2         ED First time derivative of 2nd flapwise bending-mode DOF of blade 1 (internal DOF index = DOF_BF(1,2)), m/s
         15    -4.856992746E-007                                                 T               2         ED First time derivative of 2nd flapwise bending-mode DOF of blade 2 (internal DOF index = DOF_BF(2,2)), m/s
         16    -1.082197969E-006                                                 T               2         ED First time derivative of 2nd flapwise bending-mode DOF of blade 3 (internal DOF index = DOF_BF(3,2)), m/s

Order of continuous state derivatives:
   Row/Column Operating Point                                             Rotating Frame? Derivative Order Description
   ---------- ---------------                                             --------------- ---------------- -----------
          1     2.335530780E-006                                                 F               2         First time derivative of ED 1st tower fore-aft bending mode DOF (internal DOF index = DOF_TFA1), m/s
          2    -1.053118558E-005                                                 F               2         First time derivative of ED 1st tower side-to-side bending mode DOF (internal DOF index = DOF_TSS1), m/s
          3    -4.898285988E-005                                                 T               2         First time derivative of ED 1st flapwise bending-mode DOF of blade 1 (internal DOF index = DOF_BF(1,1)), m/s
          4    -5.304187198E-006                                                 T               2         First time derivative of ED 1st flapwise bending-mode DOF of blade 2 (internal DOF index = DOF_BF(2,1)), m/s
          5     7.285473839E-005                                                 T               2         First time derivative of ED 1st flapwise bending-mode DOF of blade 3 (internal DOF index = DOF_BF(3,1)), m/s
          6     2.305440148E-006                                                 T               2         First time derivative of ED 2nd flapwise bending-mode DOF of blade 1 (internal DOF index = DOF_BF(1,2)), m/s
          7    -4.856992746E-007                                                 T               2         First time derivative of ED 2nd flapwise bending-mode DOF of blade 2 (internal DOF index = DOF_BF(2,2)), m/s
          8    -1.082197969E-006                                                 T               2         First time derivative of ED 2nd flapwise bending-mode DOF of blade 3 (internal DOF index = DOF_BF(3,2)), m/s
          9    -1.414625876E-004                                                 F               2         First time derivative of ED First time derivative of 1st tower fore-aft bending mode DOF (internal DOF index = DOF_TFA1), m/s/s
         10    -2.864314047E-005                                                 F               2         First time derivative of ED First time derivative of 1st tower side-to-side bending mode DOF (internal DOF index = DOF_TSS1), m/s/s
         11    -2.299157932E-004                                                 T               2         First time derivative of ED First time derivative of 1st flapwise bending-mode DOF of blade 1 (internal DOF index = DOF_BF(1,1)), m/s/s
         12     1.172227712E-004                                                 T               2         First time derivative of ED First time derivative of 1st flapwise bending-mode DOF of blade 2 (internal DOF index = DOF_BF(2,1)), m/s/s
         13    -1.798521698E-004                                                 T               2         First time derivative of ED First time derivative of 1st flapwise bending-mode DOF of blade 3 (internal DOF index = DOF_BF(3,1)), m/s/s
         14     1.152683944E-005                                                 T               2         First time derivative of ED First time derivative of 2nd flapwise bending-mode DOF of blade 1 (internal DOF index = DOF_BF(1,2)), m/s/s
         15     3.192904387E-006                                                 T               2         First time derivative of ED First time derivative of 2nd flapwise bending-mode DOF of blade 2 (internal DOF index = DOF_BF(2,2)), m/s/s
         16     1.424950551E-005                                                 T               2         First time derivative of ED First time derivative of 2nd flapwise bending-mode DOF of blade 3 (internal DOF index = DOF_BF(3,2)), m/s/s

Order of inputs:
     Column   Operating Point                                             Rotating Frame? Derivative Order Description
   ---------- ---------------                                             --------------- ---------------- -----------
          1     0.000000000E+000                                                 T               0         ED Blade 1 pitch command, rad
          2     0.000000000E+000                                                 T               0         ED Blade 2 pitch command, rad
          3     0.000000000E+000                                                 T               0         ED Blade 3 pitch command, rad
          4     0.000000000E+000                                                 F               0         ED Yaw moment, Nm
          5     0.000000000E+000                                                 F               0         ED Generator torque, Nm
          6     0.000000000E+000                                                 F               0         ED Extended input: collective blade-pitch command, rad

Order of outputs:
        Row   Operating Point                                             Rotating Frame? Derivative Order Description
   ---------- ---------------                                             --------------- ---------------- -----------
          1     1.694296747E-001                                                 T               0         ED OoPDefl1, (m)
          2    -2.332809009E-002                                                 T               0         ED IPDefl1, (m)
          3     0.000000000E+000                                                 T               0         ED TwstDefl1, (deg)
          4     0.000000000E+000                                                 T               0         ED BldPitch1, (deg)
          5     6.024406815E+001                                                 F               0         ED Azimuth, (deg)
          6     8.500000000E+000                                                 F               0         ED RotSpeed, (rpm)
          7     8.245000000E+002                                                 F               0         ED GenSpeed, (rpm)
          8     3.298030424E-005                                                 F               0         ED TTDspFA, (m)
          9    -7.201584594E-006                                                 F               0         ED TTDspSS, (m)
         10     0.000000000E+000                                                 F               0         ED TTDspTwst, (deg)
         11    -9.887718201E+000                                                 T               0         ED Spn2MLxb1, (kN-m)
         12     8.203746796E+001                                                 T               0         ED Spn2MLyb1, (kN-m)
         13     1.341591072E+001                                                 T               0         ED RootFxb1, (kN)
         14    -5.618641153E-002                                                 T               0         ED RootFyb1, (kN)
         15     3.071913757E+002                                                 T               0         ED RootFzb1, (kN)
         16    -7.156530768E-002                                                 T               0         ED RootMxb1, (kN-m)
         17     4.108856201E+002                                                 T               0         ED RootMyb1, (kN-m)
         18     9.758102149E-002                                                 T               0         ED RootMzb1, (kN-m)
         19     2.888591774E-002                                                 F               0         ED RotTorq, (kN-m)
         20     5.716836452E-002                                                 F               0         ED LSSGagMya, (kN-m)
         21    -6.579330564E-002                                                 F               0         ED LSSGagMza, (kN-m)
         22     5.186627805E-002                                                 F               0         ED YawBrFxp, (kN)
         23    -1.057555340E-002                                                 F               0         ED YawBrFyp, (kN)
         24     3.078677400E-004                                                 F               0         ED YawBrFzp, (kN)
         25     5.043089390E-002                                                 F               0         ED YawBrMxp, (kN-m)
         26     1.912744939E-001                                                 F               0         ED YawBrMyp, (kN-m)
         27     1.153639704E-002                                                 F               0         ED YawBrMzp, (kN-m)
         28     6.533652544E-002                                                 F               0         ED TwrBsFxt, (kN)
         29    -1.333303377E-002                                                 F               0         ED TwrBsFyt, (kN)
         30     3.078293812E-004                                                 F               0         ED TwrBsFzt, (kN)
         31     1.148945451E+000                                                 F               0         ED TwrBsMxt, (kN-m)
         32     5.581543446E+000                                                 F               0         ED TwrBsMyt, (kN-m)
         33     1.153642312E-002                                                 F               0         ED TwrBsMzt, (kN-m)


Linearized state matrices:

A: 16 x 16
     0.000000000E+000   0.000000000E+000   0.000000000E+000   0.000000000E+000   0.000000000E+000   0.000000000E+000   0.000000000E+000   0.000000000E+000   1.000000000E+000   0.000000000E+000   0.000000000E+000   0.000000000E+000   0.000000000E+000   0.000000000E+000   0.000000000E+000   0.000000000E+000
     0.000000000E+000   0.000000000E+000   0.000000000E+000   0.000000000E+000   0.000000000E+000   0.000000000E+000   0.000000000E+000   0.000000000E+000   0.000000000E+000   1.000000000E+000   0.000000000E+000   0.000000000E+000   0.000000000E+000   0.000000000E+000   0.000000000E+000   0.000000000E+000
     0.000000000E+000   0.000000000E+000   0.000000000E+000   0.000000000E+000   0.000000000E+000   0.000000000E+000   0.000000000E+000   0.000000000E+000   0.000000000E+000   0.000000000E+000   1.000000000E+000   0.000000000E+000   0.000000000E+000   0.000000000E+000   0.000000000E+000   0.000000000E+000
     0.000000000E+000   0.000000000E+000   0.000000000E+000   0.000000000E+000   0.000000000E+000   0.000000000E+000   0.000000000E+000   0.000000000E+000   0.000000000E+000   0.000000000E+000   0.000000000E+000   1.000000000E+000   0.000000000E+000   0.000000000E+000   0.000000000E+000   0.000000000E+000
     0.000000000E+000   0.000000000E+000   0.000000000E+000   0.000000000E+000   0.000000000E+000   0.000000000E+000   0.000000000E+000   0.000000000E+000   0.000000000E+000   0.000000000E+000   0.000000000E+000   0.000000000E+000   1.000000000E+000   0.000000000E+000   0.000000000E+000   0.000000000E+000
     0.000000000E+000   0.000000000E+000   0.000000000E+000   0.000000000E+000   0.000000000E+000   0.000000000E+000   0.000000000E+000   0.000000000E+000   0.000000000E+000   0.000000000E+000   0.000000000E+000   0.000000000E+000   0.000000000E+000   1.000000000E+000   0.000000000E+000   0.000000000E+000
     0.000000000E+000   0.000000000E+000   0.000000000E+000   0.000000000E+000   0.000000000E+000   0.000000000E+000   0.000000000E+000   0.000000000E+000   0.000000000E+000   0.000000000E+000   0.000000000E+000   0.000000000E+000   0.000000000E+000   0.000000000E+000   1.000000000E+000   0.000000000E+000
     0.000000000E+000   0.000000000E+000   0.000000000E+000   0.000000000E+000   0.000000000E+000   0.000000000E+000   0.000000000E+000   0.000000000E+000   0.000000000E+000   0.000000000E+000   0.000000000E+000   0.000000000E+000   0.000000000E+000   0.000000000E+000   0.000000000E+000   1.000000000E+000
    -4.706769827E+000  -6.738795701E-002   1.506885261E-001   2.870180919E-002   1.587012789E-001  -5.942273954E-001  -2.816308296E-001  -6.625112942E-001  -1.417328964E-002  -4.016891440E-003   6.397917103E-004  -2.612394405E-004   4.776587923E-004  -6.735276073E-004   2.333301029E-004  -5.836106070E-004
    -7.005427011E-002  -4.112167859E+000   3.778010555E-002  -3.861426431E-003   1.755618680E-002  -2.583538030E-001   4.638188001E-002  -1.892653076E-001  -1.293159786E-003  -1.395022497E-002   9.368306875E-004   2.723011492E-005  -1.766485174E-003  -1.670087331E-003  -6.768127616E-005   1.804311561E-003
     1.568582753E+001   3.626765199E+000  -1.986102801E+001  -9.210292765E-002  -5.414635512E-001   7.524868156E+000   8.967138925E-001   2.356358854E+000   2.988176043E+000   1.471458429E-002  -4.372005456E-002   8.448575202E-004  -1.241133546E-004  -6.929496541E-005  -7.187149607E-004   4.446013316E-004
     2.448742947E+000  -2.923036183E-001  -7.556743175E-002  -1.934470466E+001  -8.135612667E-002   2.892842724E-001   5.488592007E+000   3.303923183E-001  -8.069503866E-003   4.888189714E-001  -2.590149678E-004  -4.068153297E-002  -3.897425071E-004   2.182155452E-004  -3.811945446E-003   4.480028694E-004
     1.645234936E+001   1.591680710E+000  -5.384489539E-001  -9.891152835E-002  -1.988917886E+001   2.159405126E+000   9.677484990E-001   7.713018946E+000  -2.874789771E+000   5.857154101E-003  -2.542253954E-003   9.028886645E-004  -4.190541392E-002   2.901884813E-003  -7.921262441E-004  -2.241433567E-003
    -1.286233264E+001  -5.388161031E+000   2.654467418E+000   7.300564894E-002   4.529205885E-001  -1.560103235E+002  -7.056036582E-001  -2.037557720E+000  -1.628956236E+000  -3.746140874E-002   2.432375541E-002  -6.745063761E-004  -9.397387758E-004  -1.196794137E-001   5.475596633E-004   7.000787168E-004
    -6.107923247E+000   9.537378336E-001   1.865468451E-001   2.236030931E+000   2.020969899E-001  -7.079324793E-001  -1.544488993E+002  -8.142984179E-001  -1.016913777E-002  -2.797795615E-001   5.954027158E-004   2.105570944E-002   1.069030350E-003  -4.536053238E-004  -1.154057274E-001  -1.216502157E-003
    -1.433994317E+001  -3.953587623E+000   4.914978186E-001   8.353473521E-002   2.695055704E+000  -2.037896754E+000  -8.119253130E-001  -1.562526367E+002   1.536744802E+000  -3.245216732E-002   2.794684789E-003  -7.675375175E-004   2.124063928E-002  -3.565540413E-003   6.460053465E-004  -1.158730073E-001
B: 16 x 6
     0.000000000E+000   0.000000000E+000   0.000000000E+000   0.000000000E+000   0.000000000E+000   0.000000000E+000
     0.000000000E+000   0.000000000E+000   0.000000000E+000   0.000000000E+000   0.000000000E+000   0.000000000E+000
     0.000000000E+000   0.000000000E+000   0.000000000E+000   0.000000000E+000   0.000000000E+000   0.000000000E+000
     0.000000000E+000   0.000000000E+000   0.000000000E+000   0.000000000E+000   0.000000000E+000   0.000000000E+000
     0.000000000E+000   0.000000000E+000   0.000000000E+000   0.000000000E+000   0.000000000E+000   0.000000000E+000
     0.000000000E+000   0.000000000E+000   0.000000000E+000   0.000000000E+000   0.000000000E+000   0.000000000E+000
     0.000000000E+000   0.000000000E+000   0.000000000E+000   0.000000000E+000   0.000000000E+000   0.000000000E+000
     0.000000000E+000   0.000000000E+000   0.000000000E+000   0.000000000E+000   0.000000000E+000   0.000000000E+000
     7.732516137E-003   2.327346974E-003   8.668040077E-003   0.000000000E+000   0.000000000E+000   1.872790319E-002
     3.021824550E-003  -1.126644684E-003   2.040425495E-003   0.000000000E+000   0.000000000E+000   3.935605361E-003
    -5.801644499E-001  -6.795122101E-003  -3.046899665E-002   0.000000000E+000   0.000000000E+000  -6.174285687E-001
    -3.791455814E-003  -5.532647582E-001  -4.357432151E-003   0.000000000E+000   0.000000000E+000  -5.614136462E-001
    -2.798756584E-002  -7.752096824E-003  -5.827986503E-001   0.000000000E+000   0.000000000E+000  -6.185383130E-001
     1.053674697E+000   4.890031910E-003   2.610690749E-002   0.000000000E+000   0.000000000E+000   1.084671636E+000
     9.298252273E-003   1.032107443E+000   1.076434590E-002   0.000000000E+000   0.000000000E+000   1.052170041E+000
     2.620854051E-002   6.031869381E-003   1.056886354E+000   0.000000000E+000   0.000000000E+000   1.089126764E+000
C: 33 x 16
     0.000000000E+000   0.000000000E+000   9.910330306E-001   0.000000000E+000   0.000000000E+000   1.012657798E+000   0.000000000E+000   0.000000000E+000   0.000000000E+000   0.000000000E+000   0.000000000E+000   0.000000000E+000   0.000000000E+000   0.000000000E+000   0.000000000E+000   0.000000000E+000
     0.000000000E+000   0.000000000E+000  -1.265685158E-001   0.000000000E+000   0.000000000E+000   4.159166127E-002   0.000000000E+000   0.000000000E+000   0.000000000E+000   0.000000000E+000   0.000000000E+000   0.000000000E+000   0.000000000E+000   0.000000000E+000   0.000000000E+000   0.000000000E+000
     0.000000000E+000   0.000000000E+000   0.000000000E+000   0.000000000E+000   0.000000000E+000   0.000000000E+000   0.000000000E+000   0.000000000E+000   0.000000000E+000   0.000000000E+000   0.000000000E+000   0.000000000E+000   0.000000000E+000   0.000000000E+000   0.000000000E+000   0.000000000E+000
     0.000000000E+000   0.000000000E+000   0.000000000E+000   0.000000000E+000   0.000000000E+000   0.000000000E+000   0.000000000E+000   0.000000000E+000   0.000000000E+000   0.000000000E+000   0.000000000E+000   0.000000000E+000   0.000000000E+000   0.000000000E+000   0.000000000E+000   0.000000000E+000
     0.000000000E+000   0.000000000E+000   0.000000000E+000   0.000000000E+000   0.000000000E+000   0.000000000E+000   0.000000000E+000   0.000000000E+000   0.000000000E+000   0.000000000E+000   0.000000000E+000   0.000000000E+000   0.000000000E+000   0.000000000E+000   0.000000000E+000   0.000000000E+000
     0.000000000E+000   0.000000000E+000   0.000000000E+000   0.000000000E+000   0.000000000E+000   0.000000000E+000   0.000000000E+000   0.000000000E+000   0.000000000E+000   0.000000000E+000   0.000000000E+000   0.000000000E+000   0.000000000E+000   0.000000000E+000   0.000000000E+000   0.000000000E+000
     0.000000000E+000   0.000000000E+000   0.000000000E+000   0.000000000E+000   0.000000000E+000   0.000000000E+000   0.000000000E+000   0.000000000E+000   0.000000000E+000   0.000000000E+000   0.000000000E+000   0.000000000E+000   0.000000000E+000   0.000000000E+000   0.000000000E+000   0.000000000E+000
     1.000000005E+000   0.000000000E+000   0.000000000E+000   0.000000000E+000   0.000000000E+000   0.000000000E+000   0.000000000E+000   0.000000000E+000   0.000000000E+000   0.000000000E+000   0.000000000E+000   0.000000000E+000   0.000000000E+000   0.000000000E+000   0.000000000E+000   0.000000000E+000
     0.000000000E+000  -1.000000005E+000   0.000000000E+000   0.000000000E+000   0.000000000E+000   0.000000000E+000   0.000000000E+000   0.000000000E+000   0.000000000E+000   0.000000000E+000   0.000000000E+000   0.000000000E+000   0.000000000E+000   0.000000000E+000   0.000000000E+000   0.000000000E+000
     0.000000000E+000   0.000000000E+000   0.000000000E+000   0.000000000E+000   0.000000000E+000   0.000000000E+000   0.000000000E+000   0.000000000E+000   0.000000000E+000   0.000000000E+000   0.000000000E+000   0.000000000E+000   0.000000000E+000   0.000000000E+000   0.000000000E+000   0.000000000E+000
    -1.482434731E+002   3.076788820E+002   3.110702040E+001   1.227077358E+000   3.853408370E+000  -5.890296501E+002  -1.268058493E+001  -7.348217371E+000  -1.771540582E+001   9.112532906E-001  -1.952565614E+000  -1.061511351E-002   1.486959947E-001  -5.188944689E-001   1.183899456E-002  -1.546177132E-001
    -2.571269981E+001  -1.174680281E+001   4.948836197E+002   1.449110704E-001   9.090215471E-001   4.556137325E+002  -1.398289654E+000  -4.116149644E+000  -2.446392912E+000  -7.447713252E-002   1.138427055E+000  -1.350489436E-003  -2.292278121E-003   3.202081531E-001   8.884798920E-004   1.421567827E-003
     5.280918349E+001  -7.569299978E+000   4.263968709E+001  -3.307144278E-001  -1.749827829E+000  -1.948813341E+002   3.262298256E+000   7.070012105E+000   2.980878615E+000   3.146877166E-002   1.370880049E-001   2.989734837E-003  -8.953656112E-003  -1.668565237E-001  -2.798711660E-003   1.019530676E-002
     2.495882741E+001  -6.678741537E+001  -8.588599715E+000  -2.222357704E-001  -5.934845077E-001   7.403025474E+001   2.319234289E+000   5.828158251E-001   1.877951067E+000  -2.075091523E-001   1.430871357E-001   1.929207408E-003  -3.146428330E-002  -6.813677674E-002  -2.776499663E-003   3.305257994E-002
     4.958655048E+000   6.573948032E+001  -7.685706458E-001   3.831125294E-002  -4.099090830E-001   4.354262255E+000  -5.103428500E-001   3.563159759E+000  -4.371321145E-001   1.461598132E+001   6.325266047E-001  -1.421567827E-004   2.779165102E-002  -8.110044454E-001   7.107839136E-004  -2.843135655E-002
    -7.210476763E+002   1.682946290E+003   3.288552659E+002   6.163282836E+000   1.805398693E+001  -2.587991062E+003  -6.397382294E+001  -2.760095547E+001  -7.105366388E+001   5.102019337E+000  -5.927563012E+000  -5.284412895E-002   8.036660180E-001   1.072656047E+000   6.507785500E-002  -8.361139804E-001
     5.199267334E+002  -3.058447734E+002   1.735587896E+003  -3.497270090E+000  -1.637269422E+001  -4.569936839E+003   3.496417150E+001   5.951180474E+001   4.157645378E+001  -4.555954572E-001   5.403592547E+000   3.127449220E-002  -1.878601884E-001  -4.064262418E+000  -3.127449220E-002   2.032841993E-001
     1.037858861E+000  -2.200212735E+000   4.491527192E-001  -8.646332306E-003  -2.678017220E-002   2.629694325E+000   8.966792426E-002   4.928703376E-002   1.166470701E-001  -6.971388443E-003   1.207468468E-002   1.875351991E-004  -1.093021152E-003   3.061090878E-004  -4.780785357E-004   8.206291815E-004
    -1.039926135E+003   3.091807002E+003   3.390641841E+002   3.422071285E+002   3.562067995E+002  -2.652432686E+003  -2.810133247E+003  -2.720493266E+003  -2.314630589E+000  -2.516954966E+000  -6.395076689E+000  -5.917061735E+000  -4.390059110E+000   1.664931320E+000   6.652999903E-001  -9.343035895E-001
     2.759443255E+002   7.067493144E+002   1.804613969E+003  -9.375493571E+002  -8.948254154E+002  -4.857896726E+003   2.699851035E+003   2.312917687E+003   7.375712453E+001  -2.021457164E-001   6.670869177E+000  -2.995554658E+000  -3.586370463E+000  -5.562267281E+000   2.843916198E+000   2.767037525E+000
    -3.131009295E+002   8.699821058E+002   3.345471079E+001   1.563080355E+003  -1.583923099E+003  -2.454427257E+002  -4.174174489E+003   4.397754412E+003   2.790835616E+001   9.838903265E+000  -6.489065645E-001   6.169983640E+000  -5.290866105E+000   4.206396989E-001  -5.121632620E+000   4.618640206E+000
     1.589369578E+003   3.649949894E+000  -7.220695518E+000   3.417652074E+001  -8.756244765E+000   4.702139268E+000  -1.039820336E+002   1.676510469E+001   5.055119776E+000  -5.840650022E-002  -5.996908694E-002   1.448985414E-001  -3.718669249E-002   4.594239285E-002  -1.393284840E-001   3.796576962E-002
    -1.710310781E+001  -1.491821875E+003   7.647514039E+000   6.926319918E+000   3.504743594E+000  -4.764749405E+001  -5.766682071E+001  -3.754259567E+001   1.541933141E-001  -5.363401753E+000  -1.634571164E-001  -1.181732398E-001  -1.086483579E-002   1.067536355E-001   1.641121707E-002  -9.866311073E-002
     1.987000112E+001   2.673437254E+000  -1.081571672E+001  -5.818187250E+000   3.617996738E+000   8.051923432E+001   2.734019773E+001  -4.862972523E+001   3.193745295E+000   2.013536184E-001   4.236199242E-001  -6.605448181E-001   2.040177852E-001  -4.414879143E-001   8.521509557E-001  -3.723602742E-001
    -9.988589826E+002   6.008494189E+003   4.632283961E+002   3.216454292E+002   2.129146461E+002  -2.945173661E+003  -2.641348366E+003  -2.283817661E+003   4.056721632E+000   8.204007598E+000  -5.416365556E+000  -5.587115842E+000  -5.061704374E+000   8.167022566E-001   6.116194929E-001  -8.430572252E-002
     3.654759312E+003  -3.933106804E+002   8.286834894E+002  -1.761749577E+003   9.349267777E+002  -1.984292253E+003   4.794298980E+003  -2.834462669E+003   3.245332863E+001  -8.543672093E+000   5.101062367E+000  -8.584393873E+000   3.398812636E+000  -4.441937867E+000   8.202357515E+000  -3.749406662E+000
     1.403647718E+002   2.793299786E+002   1.570976738E+003  -9.408266395E+001  -1.577080240E+003  -4.265071668E+003   7.522179957E+002   4.292752437E+003   7.655512405E+001   4.174424955E+000   7.675937066E+000   1.375183069E+000  -7.496499112E+000  -7.153468826E+000  -2.655688523E-001   7.305618231E+000
     2.037606894E+003   1.006747290E+001  -2.157114564E+001   3.144317233E+001  -2.386975862E+001   6.129194084E+001  -7.716161328E+001   7.985767219E+001   6.404879406E+000   3.241322222E-001  -1.208977929E-001   1.697766031E-001  -8.267520574E-002   1.100838733E-001  -1.615482902E-001   9.354409132E-002
    -2.382973123E+001  -1.886672561E+003   1.127516411E+001   6.555546708E+000   5.190490089E+000  -7.245468003E+001  -5.321323196E+001  -5.571586325E+001   3.002352095E-002  -6.702903916E+000  -7.350257925E-002  -1.155585060E-001  -1.804830114E-001  -5.360830842E-002   9.912320710E-003   7.458717112E-002
     1.986774973E+001   2.672926549E+000  -1.081570562E+001  -5.818205575E+000   3.618008399E+000   8.051920100E+001   2.734024215E+001  -4.862976965E+001   3.193746513E+000   2.013306233E-001   4.236199936E-001  -6.605449570E-001   2.040178199E-001  -4.414880010E-001   8.521510425E-001  -3.723603610E-001