
Linearized model: Predictions were generated on 17-Jan-2026 at 06:32:31 using OpenFAST, compiled as a 64-bit application using single precision at commit v3.5.1
 linked with  NWTC Subroutine Library; ElastoDyn

Description from the FAST input file: FAST Certification Test #18: NREL 5.0 MW Baseline Wind Turbine (Onshore)

Simulation information:
   Simulation time:                   141.7875 s
   Rotor Speed:                         1.4661 rad/s
   Azimuth:                             0.5262 rad
   Wind Speed:                          0.0000 m/s
   Number of continuous states:        16
   Number of discrete states:           0
   Number of constraint states:         0
   Number of inputs:                    6
   Number of outputs:                  33
   Jacobians included in this file?    No

Order of continuous states:
   Row/Column Operating Point                                             Rotating Frame? Derivative Order Description
   ---------- ---------------                                             --------------- ---------------- -----------
          1     3.840297868E-004                                                 F               2         ED 1st tower fore-aft bending mode DOF (internal DOF index = DOF_TFA1), m
          2     1.043745942E-004                                                 F               2         ED 1st tower side-to-side bending mode DOF (internal DOF index = DOF_TSS1), m
          3     4.395714104E-001                                                 T               2         ED 1st flapwise bending-mode DOF of blade 1 (internal DOF index = DOF_BF(1,1)), m
          4     4.388293624E-001                                                 T               2         ED 1st flapwise bending-mode DOF of blade 2 (internal DOF index = DOF_BF(2,1)), m
          5     4.395385981E-001                                                 T               2         ED 1st flapwise bending-mode DOF of blade 3 (internal DOF index = DOF_BF(3,1)), m
          6    -3.202236444E-002                                                 T               2         ED 2nd flapwise bending-mode DOF of blade 1 (internal DOF index = DOF_BF(1,2)), m
          7    -3.199957684E-002                                                 T               2         ED 2nd flapwise bending-mode DOF of blade 2 (internal DOF index = DOF_BF(2,2)), m
          8    -3.203017637E-002                                                 T               2         ED 2nd flapwise bending-mode DOF of blade 3 (internal DOF index = DOF_BF(3,2)), m
          9    -5.112038343E-004                                                 F               2         ED First time derivative of 1st tower fore-aft bending mode DOF (internal DOF index = DOF_TFA1), m/s
         10    -1.184818611E-004                                                 F               2         ED First time derivative of 1st tower side-to-side bending mode DOF (internal DOF index = DOF_TSS1), m/s
         11    -1.648851321E-003                                                 T               2         ED First time derivative of 1st flapwise bending-mode DOF of blade 1 (internal DOF index = DOF_BF(1,1)), m/s
         12    -4.519604554E-004                                                 T               2         ED First time derivative of 1st flapwise bending-mode DOF of blade 2 (internal DOF index = DOF_BF(2,1)), m/s
         13     1.324253273E-003                                                 T               2         ED First time derivative of 1st flapwise bending-mode DOF of blade 3 (internal DOF index = DOF_BF(3,1)), m/s
         14     9.438089182E-005                                                 T               2         ED First time derivative of 2nd flapwise bending-mode DOF of blade 1 (internal DOF index = DOF_BF(1,2)), m/s
         15     2.520861744E-005                                                 T               2         ED First time derivative of 2nd flapwise bending-mode DOF of blade 2 (internal DOF index = DOF_BF(2,2)), m/s
         16    -1.247777436E-005                                                 T               2         ED First time derivative of 2nd flapwise bending-mode DOF of blade 3 (internal DOF index = DOF_BF(3,2)), m/s

Order of continuous state derivatives:
   Row/Column Operating Point                                             Rotating Frame? Derivative Order Description
   ---------- ---------------                                             --------------- ---------------- -----------
          1    -5.112038343E-004                                                 F               2         First time derivative of ED 1st tower fore-aft bending mode DOF (internal DOF index = DOF_TFA1), m/s
          2    -1.184818611E-004                                                 F               2         First time derivative of ED 1st tower side-to-side bending mode DOF (internal DOF index = DOF_TSS1), m/s
          3    -1.648851321E-003                                                 T               2         First time derivative of ED 1st flapwise bending-mode DOF of blade 1 (internal DOF index = DOF_BF(1,1)), m/s
          4    -4.519604554E-004                                                 T               2         First time derivative of ED 1st flapwise bending-mode DOF of blade 2 (internal DOF index = DOF_BF(2,1)), m/s
          5     1.324253273E-003                                                 T               2         First time derivative of ED 1st flapwise bending-mode DOF of blade 3 (internal DOF index = DOF_BF(3,1)), m/s
          6     9.438089182E-005                                                 T               2         First time derivative of ED 2nd flapwise bending-mode DOF of blade 1 (internal DOF index = DOF_BF(1,2)), m/s
          7     2.520861744E-005                                                 T               2         First time derivative of ED 2nd flapwise bending-mode DOF of blade 2 (internal DOF index = DOF_BF(2,2)), m/s
          8    -1.247777436E-005                                                 T               2         First time derivative of ED 2nd flapwise bending-mode DOF of blade 3 (internal DOF index = DOF_BF(3,2)), m/s
          9    -1.614913926E-003                                                 F               2         First time derivative of ED First time derivative of 1st tower fore-aft bending mode DOF (internal DOF index = DOF_TFA1), m/s/s
         10    -4.208901955E-004                                                 F               2         First time derivative of ED First time derivative of 1st tower side-to-side bending mode DOF (internal DOF index = DOF_TSS1), m/s/s
         11    -4.554735962E-003                                                 T               2         First time derivative of ED First time derivative of 1st flapwise bending-mode DOF of blade 1 (internal DOF index = DOF_BF(1,1)), m/s/s
         12     5.019448698E-003                                                 T               2         First time derivative of ED First time derivative of 1st flapwise bending-mode DOF of blade 2 (internal DOF index = DOF_BF(2,1)), m/s/s
         13    -3.587136976E-003                                                 T               2         First time derivative of ED First time derivative of 1st flapwise bending-mode DOF of blade 3 (internal DOF index = DOF_BF(3,1)), m/s/s
         14     1.802204060E-004                                                 T               2         First time derivative of ED First time derivative of 2nd flapwise bending-mode DOF of blade 1 (internal DOF index = DOF_BF(1,2)), m/s/s
         15    -1.091144004E-004                                                 T               2         First time derivative of ED First time derivative of 2nd flapwise bending-mode DOF of blade 2 (internal DOF index = DOF_BF(2,2)), m/s/s
         16     2.533343795E-004                                                 T               2         First time derivative of ED First time derivative of 2nd flapwise bending-mode DOF of blade 3 (internal DOF index = DOF_BF(3,2)), m/s/s

Order of inputs:
     Column   Operating Point                                             Rotating Frame? Derivative Order Description
   ---------- ---------------                                             --------------- ---------------- -----------
          1     0.000000000E+000                                                 T               0         ED Blade 1 pitch command, rad
          2     0.000000000E+000                                                 T               0         ED Blade 2 pitch command, rad
          3     0.000000000E+000                                                 T               0         ED Blade 3 pitch command, rad
          4     0.000000000E+000                                                 F               0         ED Yaw moment, Nm
          5     0.000000000E+000                                                 F               0         ED Generator torque, Nm
          6     0.000000000E+000                                                 F               0         ED Extended input: collective blade-pitch command, rad

Order of outputs:
        Row   Operating Point                                             Rotating Frame? Derivative Order Description
   ---------- ---------------                                             --------------- ---------------- -----------
          1     4.032020867E-001                                                 T               0         ED OoPDefl1, (m)
          2    -5.696776137E-002                                                 T               0         ED IPDefl1, (m)
          3     0.000000000E+000                                                 T               0         ED TwstDefl1, (deg)
          4     0.000000000E+000                                                 T               0         ED BldPitch1, (deg)
          5     3.015031052E+001                                                 F               0         ED Azimuth, (deg)
          6     1.400000000E+001                                                 F               0         ED RotSpeed, (rpm)
          7     1.358000000E+003                                                 F               0         ED GenSpeed, (rpm)
          8     3.840297868E-004                                                 F               0         ED TTDspFA, (m)
          9    -1.043745942E-004                                                 F               0         ED TTDspSS, (m)
         10     0.000000000E+000                                                 F               0         ED TTDspTwst, (deg)
         11    -2.521989250E+001                                                 T               0         ED Spn2MLxb1, (kN-m)
         12     1.933484802E+002                                                 T               0         ED Spn2MLyb1, (kN-m)
         13     3.643340683E+001                                                 T               0         ED RootFxb1, (kN)
         14    -3.866108358E-001                                                 T               0         ED RootFyb1, (kN)
         15     8.334002075E+002                                                 T               0         ED RootFzb1, (kN)
         16    -2.532980144E-001                                                 T               0         ED RootMxb1, (kN-m)
         17     1.061934814E+003                                                 T               0         ED RootMyb1, (kN-m)
         18     6.187322736E-001                                                 T               0         ED RootMzb1, (kN-m)
         19     4.199161232E-001                                                 F               0         ED RotTorq, (kN-m)
         20     8.773226142E-001                                                 F               0         ED LSSGagMya, (kN-m)
         21    -1.253819823E+000                                                 F               0         ED LSSGagMza, (kN-m)
         22     5.950002074E-001                                                 F               0         ED YawBrFxp, (kN)
         23    -1.547349840E-001                                                 F               0         ED YawBrFyp, (kN)
         24     4.387621302E-003                                                 F               0         ED YawBrFzp, (kN)
         25     6.571403146E-001                                                 F               0         ED YawBrMxp, (kN-m)
         26     2.605463028E+000                                                 F               0         ED YawBrMyp, (kN-m)
         27    -7.224935293E-001                                                 F               0         ED YawBrMzp, (kN-m)
         28     7.491385937E-001                                                 F               0         ED TwrBsFxt, (kN)
         29    -1.952294856E-001                                                 F               0         ED TwrBsFyt, (kN)
         30     4.382635932E-003                                                 F               0         ED TwrBsFzt, (kN)
         31     1.673913574E+001                                                 F               0         ED TwrBsMxt, (kN-m)
         32     6.441815948E+001                                                 F               0         ED TwrBsMyt, (kN-m)
         33    -7.224895358E-001                                                 F               0         ED TwrBsMzt, (kN-m)


Linearized state matrices:

A: 16 x 16
     0.000000000E+000   0.000000000E+000   0.000000000E+000   0.000000000E+000   0.000000000E+000   0.000000000E+000   0.000000000E+000   0.000000000E+000   1.000000000E+000   0.000000000E+000   0.000000000E+000   0.000000000E+000   0.000000000E+000   0.000000000E+000   0.000000000E+000   0.000000000E+000
     0.000000000E+000   0.000000000E+000   0.000000000E+000   0.000000000E+000   0.000000000E+000   0.000000000E+000   0.000000000E+000   0.000000000E+000   0.000000000E+000   1.000000000E+000   0.000000000E+000   0.000000000E+000   0.000000000E+000   0.000000000E+000   0.000000000E+000   0.000000000E+000
     0.000000000E+000   0.000000000E+000   0.000000000E+000   0.000000000E+000   0.000000000E+000   0.000000000E+000   0.000000000E+000   0.000000000E+000   0.000000000E+000   0.000000000E+000   1.000000000E+000   0.000000000E+000   0.000000000E+000   0.000000000E+000   0.000000000E+000   0.000000000E+000
     0.000000000E+000   0.000000000E+000   0.000000000E+000   0.000000000E+000   0.000000000E+000   0.000000000E+000   0.000000000E+000   0.000000000E+000   0.000000000E+000   0.000000000E+000   0.000000000E+000   1.000000000E+000   0.000000000E+000   0.000000000E+000   0.000000000E+000   0.000000000E+000
     0.000000000E+000   0.000000000E+000   0.000000000E+000   0.000000000E+000   0.000000000E+000   0.000000000E+000   0.000000000E+000   0.000000000E+000   0.000000000E+000   0.000000000E+000   0.000000000E+000   0.000000000E+000   1.000000000E+000   0.000000000E+000   0.000000000E+000   0.000000000E+000
     0.000000000E+000   0.000000000E+000   0.000000000E+000   0.000000000E+000   0.000000000E+000   0.000000000E+000   0.000000000E+000   0.000000000E+000   0.000000000E+000   0.000000000E+000   0.000000000E+000   0.000000000E+000   0.000000000E+000   1.000000000E+000   0.000000000E+000   0.000000000E+000
     0.000000000E+000   0.000000000E+000   0.000000000E+000   0.000000000E+000   0.000000000E+000   0.000000000E+000   0.000000000E+000   0.000000000E+000   0.000000000E+000   0.000000000E+000   0.000000000E+000   0.000000000E+000   0.000000000E+000   0.000000000E+000   1.000000000E+000   0.000000000E+000
     0.000000000E+000   0.000000000E+000   0.000000000E+000   0.000000000E+000   0.000000000E+000   0.000000000E+000   0.000000000E+000   0.000000000E+000   0.000000000E+000   0.000000000E+000   0.000000000E+000   0.000000000E+000   0.000000000E+000   0.000000000E+000   0.000000000E+000   1.000000000E+000
    -4.706871929E+000  -6.739431005E-002   1.903183261E-001   4.245888451E-002   1.234052895E-001  -7.136864966E-001  -3.065832386E-001  -5.713222896E-001  -1.313031203E-002  -6.208020472E-003   1.037045480E-003  -2.938533919E-004   1.486221587E-004  -1.105978154E-003   3.485560126E-004  -2.159271006E-004
    -7.006378108E-002  -4.112146585E+000   4.203056452E-002   4.233411235E-003   5.372470018E-003  -3.240166151E-001   3.520014298E-003  -9.729895499E-002  -1.837699337E-003  -1.386951776E-002   4.567065782E-004   1.265101774E-003  -2.965138483E-003  -1.298216136E-003  -1.735182424E-003   3.400523918E-003
     1.917444210E+001   3.885270807E+000  -2.244818242E+001  -1.761282137E-001  -5.058224030E-001   7.397541953E+000   1.241830801E+000   2.405388667E+000   2.860075793E+000  -2.071349179E-001  -4.555937082E-002   8.209129581E-005   2.000783219E-003  -6.650016549E-004   1.086535682E-004  -2.109881829E-003
     3.459013649E+000   5.385879401E-001  -1.445252845E-001  -2.167006761E+001  -9.110950074E-002   5.617593031E-001   4.439237274E+000   4.304200199E-001   2.783039285E+000   7.116789633E-001  -8.146034605E-004  -4.088514592E-002   2.437684889E-004   9.652430794E-004  -6.386294217E-003  -2.462185630E-004
     1.195940342E+001   5.025414075E-001  -4.867277132E-001  -1.081716540E-001  -2.195225320E+001   1.838617526E+000   7.783295298E-001   5.673726667E+000  -5.544839961E+000   2.446271507E-001  -2.670525913E-003   6.443549971E-004  -4.108784238E-002   2.913390700E-003  -7.454060921E-004  -6.049239587E-003
    -1.501230764E+001  -6.464655388E+000   7.517218999E-001   1.408949372E-001   3.989686377E-001  -1.644394162E+002  -9.655406316E-001  -1.957183834E+000  -1.558731568E+000   3.672297497E-002   2.972036218E-002   9.926188207E-004  -4.036921038E-003  -1.211151797E-001  -1.533998672E-003   4.485648310E-003
    -6.353290576E+000   2.674836975E-002   2.557680474E-001   1.423140544E-001   1.664704741E-001  -9.543552242E-001  -1.621008609E+002  -7.686246213E-001  -1.517176839E+000  -4.436719984E-001   1.387161282E-003   2.532151812E-002   2.855843022E-004  -1.456137557E-003  -1.151287357E-001  -3.889287821E-004
    -1.194303780E+001  -1.950032638E+000   4.998689309E-001   1.092921273E-001   3.997569305E-001  -1.946496295E+000  -7.744158270E-001  -1.631748163E+002   2.979766073E+000  -1.995623185E-001   2.822311553E-003  -1.962811864E-004   2.483609352E-002  -3.360916097E-003   1.313143371E-004  -1.146761628E-001
B: 16 x 6
     0.000000000E+000   0.000000000E+000   0.000000000E+000   0.000000000E+000   0.000000000E+000   0.000000000E+000
     0.000000000E+000   0.000000000E+000   0.000000000E+000   0.000000000E+000   0.000000000E+000   0.000000000E+000
     0.000000000E+000   0.000000000E+000   0.000000000E+000   0.000000000E+000   0.000000000E+000   0.000000000E+000
     0.000000000E+000   0.000000000E+000   0.000000000E+000   0.000000000E+000   0.000000000E+000   0.000000000E+000
     0.000000000E+000   0.000000000E+000   0.000000000E+000   0.000000000E+000   0.000000000E+000   0.000000000E+000
     0.000000000E+000   0.000000000E+000   0.000000000E+000   0.000000000E+000   0.000000000E+000   0.000000000E+000
     0.000000000E+000   0.000000000E+000   0.000000000E+000   0.000000000E+000   0.000000000E+000   0.000000000E+000
     0.000000000E+000   0.000000000E+000   0.000000000E+000   0.000000000E+000   0.000000000E+000   0.000000000E+000
     2.326357705E-002   5.750187184E-003   1.756090712E-002   0.000000000E+000   0.000000000E+000   4.657467135E-002
     1.202491287E-002  -4.011576054E-003   1.903499612E-003   0.000000000E+000   0.000000000E+000   9.916836432E-003
    -1.426703418E+000  -1.982603724E-002  -7.298026800E-002   0.000000000E+000   0.000000000E+000  -1.519509723E+000
    -1.848535777E-002  -1.326759660E+000  -1.310061950E-002   0.000000000E+000   0.000000000E+000  -1.358345637E+000
    -6.005011184E-002  -1.428023306E-002  -1.366199003E+000   0.000000000E+000   0.000000000E+000  -1.440529348E+000
     2.739358827E+000   1.211140092E-002   5.850579045E-002   0.000000000E+000   0.000000000E+000   2.809976018E+000
     3.106660007E-002   2.655576941E+000   2.365658294E-002   0.000000000E+000   0.000000000E+000   2.710300124E+000
     6.408182152E-002   1.281738531E-002   2.692547443E+000   0.000000000E+000   0.000000000E+000   2.769446650E+000
C: 33 x 16
     0.000000000E+000   0.000000000E+000   9.910331000E-001   0.000000000E+000   0.000000000E+000   1.012657451E+000   0.000000000E+000   0.000000000E+000   0.000000000E+000   0.000000000E+000   0.000000000E+000   0.000000000E+000   0.000000000E+000   0.000000000E+000   0.000000000E+000   0.000000000E+000
     0.000000000E+000   0.000000000E+000  -1.265685071E-001   0.000000000E+000   0.000000000E+000   4.159161788E-002   0.000000000E+000   0.000000000E+000   0.000000000E+000   0.000000000E+000   0.000000000E+000   0.000000000E+000   0.000000000E+000   0.000000000E+000   0.000000000E+000   0.000000000E+000
     0.000000000E+000   0.000000000E+000   0.000000000E+000   0.000000000E+000   0.000000000E+000   0.000000000E+000   0.000000000E+000   0.000000000E+000   0.000000000E+000   0.000000000E+000   0.000000000E+000   0.000000000E+000   0.000000000E+000   0.000000000E+000   0.000000000E+000   0.000000000E+000
     0.000000000E+000   0.000000000E+000   0.000000000E+000   0.000000000E+000   0.000000000E+000   0.000000000E+000   0.000000000E+000   0.000000000E+000   0.000000000E+000   0.000000000E+000   0.000000000E+000   0.000000000E+000   0.000000000E+000   0.000000000E+000   0.000000000E+000   0.000000000E+000
     0.000000000E+000   0.000000000E+000   0.000000000E+000   0.000000000E+000   0.000000000E+000   0.000000000E+000   0.000000000E+000   0.000000000E+000   0.000000000E+000   0.000000000E+000   0.000000000E+000   0.000000000E+000   0.000000000E+000   0.000000000E+000   0.000000000E+000   0.000000000E+000
     0.000000000E+000   0.000000000E+000   0.000000000E+000   0.000000000E+000   0.000000000E+000   0.000000000E+000   0.000000000E+000   0.000000000E+000   0.000000000E+000   0.000000000E+000   0.000000000E+000   0.000000000E+000   0.000000000E+000   0.000000000E+000   0.000000000E+000   0.000000000E+000
     0.000000000E+000   0.000000000E+000   0.000000000E+000   0.000000000E+000   0.000000000E+000   0.000000000E+000   0.000000000E+000   0.000000000E+000   0.000000000E+000   0.000000000E+000   0.000000000E+000   0.000000000E+000   0.000000000E+000   0.000000000E+000   0.000000000E+000   0.000000000E+000
     9.999999439E-001   0.000000000E+000   0.000000000E+000   0.000000000E+000   0.000000000E+000   0.000000000E+000   0.000000000E+000   0.000000000E+000   0.000000000E+000   0.000000000E+000   0.000000000E+000   0.000000000E+000   0.000000000E+000   0.000000000E+000   0.000000000E+000   0.000000000E+000
     0.000000000E+000  -1.000000005E+000   0.000000000E+000   0.000000000E+000   0.000000000E+000   0.000000000E+000   0.000000000E+000   0.000000000E+000   0.000000000E+000   0.000000000E+000   0.000000000E+000   0.000000000E+000   0.000000000E+000   0.000000000E+000   0.000000000E+000   0.000000000E+000
     0.000000000E+000   0.000000000E+000   0.000000000E+000   0.000000000E+000   0.000000000E+000   0.000000000E+000   0.000000000E+000   0.000000000E+000   0.000000000E+000   0.000000000E+000   0.000000000E+000   0.000000000E+000   0.000000000E+000   0.000000000E+000   0.000000000E+000   0.000000000E+000
    -1.475091030E+002   3.889382989E+002   2.962481604E+001   9.880696031E-001   3.531503220E+000  -6.051978962E+002  -1.037544606E+001  -9.460489466E+000  -1.679936516E+001   2.299434684E+000  -2.797823180E+000  -1.299668386E-001   2.867124612E-001  -3.561915887E-001   1.774294344E-001  -3.254501845E-001
    -2.927637446E+001  -1.471728020E+001   4.929755558E+002   2.765660208E-001   7.799431884E-001   4.635885503E+002  -1.878601884E+000  -3.862755179E+000  -2.341351463E+000   1.671681031E-002   1.148520187E+000   2.523282893E-003  -9.311269269E-003   3.070586507E-001  -3.909311525E-003   1.172793457E-002
     5.534337084E+001  -1.153977634E+001   4.450696530E+001  -4.884329358E-001  -1.440394716E+000  -2.005513240E+002   3.628996119E+000   6.451074800E+000   2.840797359E+000  -1.040434314E-001   1.554217875E-001   7.258880718E-003  -1.066175870E-002  -1.801837221E-001  -9.240190877E-003   1.261641447E-002
     2.067918362E+001  -9.421583377E+001  -8.645421336E+000  -1.037187826E-001  -4.609516975E-001   7.470474425E+001   1.532360576E+000   4.709838849E-001   1.754355756E+000  -4.246778374E-001   2.115176314E-001   3.045549421E-002  -6.876098592E-002  -1.379823155E-001  -4.222639512E-002   7.958836283E-002
     1.014685436E+001   3.814925817E+001  -9.133573290E-001  -1.248136552E-001  -2.989557141E-001   3.826860591E+000   5.856859448E-001   2.055587078E+000  -3.882292067E-001   2.387659522E+001   1.060916069E+000  -1.123038584E-002   2.700978872E-002  -1.363283546E+000   1.421567827E-002  -3.127449220E-002
    -6.659576151E+002   2.240727492E+003   3.246189227E+002   4.036057069E+000   1.552484451E+001  -2.636289006E+003  -4.780161199E+001  -3.223159328E+001  -6.706545709E+001   1.151130357E+001  -8.791146476E+000  -7.364409917E-001   1.645231256E+000   3.089354603E+000   1.001910662E+000  -1.893733460E+000
     5.418282500E+002  -4.119860397E+002   1.757585236E+003  -4.520017064E+000  -1.384464907E+001  -4.629963962E+003   3.611635222E+001   5.670349749E+001   3.955546627E+001  -2.816408281E+000   6.063839724E+000   1.634803001E-001  -3.201370747E-001  -4.475095520E+000  -2.189214454E-001   3.724507707E-001
     2.467805478E+000  -6.936564029E+000   1.202538654E+000  -1.595237881E-002  -5.867049202E-002   6.530886671E+000   1.745113333E-001   1.521119223E-001   2.680937012E-001  -3.845879985E-002   4.175036425E-002   2.619766257E-003  -4.997144093E-003   3.762157043E-004  -2.441931453E-003   6.111075757E-003
    -1.040008160E+003   3.092272578E+003   3.442687217E+002   3.385041930E+002   3.564446278E+002  -2.743449277E+003  -2.896457598E+003  -2.881728911E+003  -1.654973967E+000  -1.061619304E+001  -9.102653079E+000  -1.002513399E+001  -6.724769920E+000   3.438431759E+000   4.100803236E+000   8.426815301E-002
     3.950163564E+002   1.739836652E+002   1.831475489E+003  -9.562801480E+002  -9.069848669E+002  -4.937910738E+003   2.762102201E+003   2.325531614E+003   8.084198788E+001  -8.863048742E+000   8.334985351E+000  -3.602700168E+000  -4.756331058E+000  -7.259144485E+000   3.457879057E+000   3.871530306E+000
    -1.321493172E+002   1.105003617E+003   2.716920422E+001   1.585360019E+003  -1.615002836E+003  -2.028201018E+002  -4.216540053E+003   4.480783213E+003   1.012436307E+002   1.135742939E+001  -8.341396289E-001   7.332526816E+000  -6.134333384E+000   6.518055078E-001  -6.106736088E+000   5.319387420E+000
     1.589381554E+003   3.650556356E+000  -1.791010538E+001   3.156995841E+001   5.516920378E+000   3.526687659E+001  -9.927701060E+001  -2.134881687E+001   4.877650835E+000  -8.988404352E-002  -1.390945812E-001   1.520777713E-001   3.748746549E-002   1.296833580E-001  -1.538486228E-001  -2.957666266E-002
    -1.710457170E+001  -1.491817883E+003   6.430141103E+000   8.072374018E+000   3.602262037E+000  -4.331705139E+001  -6.168943563E+001  -4.376384294E+001   2.823646839E-001  -5.527227372E+000  -1.972906042E-001  -2.533188403E-001  -2.055720350E-003   1.264994070E-001   1.602404721E-001  -1.532669461E-001
     1.982733388E+001   2.671749443E+000  -7.612120332E+000  -1.019711260E+001   4.099670563E+000   5.237479014E+001   6.682059581E+001  -5.793345908E+001   5.209614798E+000   3.097406903E-001   1.012508631E+000  -8.353304696E-001  -2.115504982E-001  -1.234779680E+000   1.156951097E+000   1.211305568E-001
    -9.989413815E+002   6.008738204E+003   4.158732708E+002   3.973145251E+002   1.862712487E+002  -2.906671740E+003  -2.944101621E+003  -2.345227614E+003   8.791452608E+000   5.688832301E-001  -8.270475603E+000  -8.874220457E+000  -7.721628811E+000   2.718084886E+000   3.209832130E+000   1.405489118E+000
     3.653812193E+003  -3.933770486E+002   1.521253850E+003  -1.580946904E+003   6.147379046E+001  -3.982483530E+003   4.467584667E+003  -5.109774023E+002   4.507259065E+001  -1.322461874E+001   1.053011597E+001  -9.066936743E+000  -1.591311355E+000  -1.022260531E+001   9.321831073E+000   9.681154554E-001
     1.403321959E+002   2.768671496E+002   9.421228962E+002   8.379492685E+002  -1.880553981E+003  -2.674910161E+003  -1.802406204E+003   5.289145319E+003   1.260514240E+002   6.147266848E+000   5.423505047E+000   7.743713644E+000  -1.075640291E+001  -5.375211722E+000  -6.539978319E+000   1.121224835E+001
     2.037628726E+003   1.006870385E+001  -3.603464317E+001   2.752642201E+001  -6.235243599E+000   1.032333893E+002  -7.007986213E+001   3.305920675E+001   6.128121266E+000   5.013230287E-001  -2.378477330E-001   1.800562808E-001   2.333259256E-002   2.349987667E-001  -1.870347350E-001  -9.011129655E-003
    -2.383214831E+001  -1.886666448E+003   1.046593552E+001   8.478888552E+000   4.118118182E+000  -7.442927106E+001  -6.135158560E+001  -5.310637004E+001   1.058971728E-001  -6.858980272E+000  -1.534398179E-001  -1.318418782E-001  -2.867681300E-001   1.847066401E-003  -6.374843225E-003   1.732518436E-001
     1.980131327E+001   2.664323269E+000  -7.611897102E+000  -1.019730140E+001   4.099690276E+000   5.237412378E+001   6.682104005E+001  -5.793364233E+001   5.208484717E+000   3.094776931E-001   1.012509603E+000  -8.353320661E-001  -2.115510362E-001  -1.234780895E+000   1.156952486E+000   1.211307087E-001