
Linearized model: Predictions were generated on 17-Jan-2026 at 06:32:31 using OpenFAST, compiled as a 64-bit application using single precision at commit v3.5.1
 linked with  NWTC Subroutine Library; ElastoDyn

Description from the FAST input file: FAST Certification Test #18: NREL 5.0 MW Baseline Wind Turbine (Onshore)

Simulation information:
   Simulation time:                   144.2875 s
   Rotor Speed:                         1.4661 rad/s
   Azimuth:                             4.1914 rad
   Wind Speed:                          0.0000 m/s
   Number of continuous states:        16
   Number of discrete states:           0
   Number of constraint states:         0
   Number of inputs:                    6
   Number of outputs:                  33
   Jacobians included in this file?    No

Order of continuous states:
   Row/Column Operating Point                                             Rotating Frame? Derivative Order Description
   ---------- ---------------                                             --------------- ---------------- -----------
          1     3.657703637E-004                                                 F               2         ED 1st tower fore-aft bending mode DOF (internal DOF index = DOF_TFA1), m
          2     8.718591562E-005                                                 F               2         ED 1st tower side-to-side bending mode DOF (internal DOF index = DOF_TSS1), m
          3     4.388497472E-001                                                 T               2         ED 1st flapwise bending-mode DOF of blade 1 (internal DOF index = DOF_BF(1,1)), m
          4     4.395911992E-001                                                 T               2         ED 1st flapwise bending-mode DOF of blade 2 (internal DOF index = DOF_BF(2,1)), m
          5     4.393762350E-001                                                 T               2         ED 1st flapwise bending-mode DOF of blade 3 (internal DOF index = DOF_BF(3,1)), m
          6    -3.200383112E-002                                                 T               2         ED 2nd flapwise bending-mode DOF of blade 1 (internal DOF index = DOF_BF(1,2)), m
          7    -3.203059360E-002                                                 T               2         ED 2nd flapwise bending-mode DOF of blade 2 (internal DOF index = DOF_BF(2,2)), m
          8    -3.201574832E-002                                                 T               2         ED 2nd flapwise bending-mode DOF of blade 3 (internal DOF index = DOF_BF(3,2)), m
          9     4.617972590E-004                                                 F               2         ED First time derivative of 1st tower fore-aft bending mode DOF (internal DOF index = DOF_TFA1), m/s
         10     1.601512631E-004                                                 F               2         ED First time derivative of 1st tower side-to-side bending mode DOF (internal DOF index = DOF_TSS1), m/s
         11     8.974478696E-004                                                 T               2         ED First time derivative of 1st flapwise bending-mode DOF of blade 1 (internal DOF index = DOF_BF(1,1)), m/s
         12     1.378896181E-003                                                 T               2         ED First time derivative of 1st flapwise bending-mode DOF of blade 2 (internal DOF index = DOF_BF(2,1)), m/s
         13    -1.289405045E-003                                                 T               2         ED First time derivative of 1st flapwise bending-mode DOF of blade 3 (internal DOF index = DOF_BF(3,1)), m/s
         14    -6.577529712E-005                                                 T               2         ED First time derivative of 2nd flapwise bending-mode DOF of blade 1 (internal DOF index = DOF_BF(1,2)), m/s
         15    -5.561277067E-005                                                 T               2         ED First time derivative of 2nd flapwise bending-mode DOF of blade 2 (internal DOF index = DOF_BF(2,2)), m/s
         16     2.954074807E-005                                                 T               2         ED First time derivative of 2nd flapwise bending-mode DOF of blade 3 (internal DOF index = DOF_BF(3,2)), m/s

Order of continuous state derivatives:
   Row/Column Operating Point                                             Rotating Frame? Derivative Order Description
   ---------- ---------------                                             --------------- ---------------- -----------
          1     4.617972590E-004                                                 F               2         First time derivative of ED 1st tower fore-aft bending mode DOF (internal DOF index = DOF_TFA1), m/s
          2     1.601512631E-004                                                 F               2         First time derivative of ED 1st tower side-to-side bending mode DOF (internal DOF index = DOF_TSS1), m/s
          3     8.974478696E-004                                                 T               2         First time derivative of ED 1st flapwise bending-mode DOF of blade 1 (internal DOF index = DOF_BF(1,1)), m/s
          4     1.378896181E-003                                                 T               2         First time derivative of ED 1st flapwise bending-mode DOF of blade 2 (internal DOF index = DOF_BF(2,1)), m/s
          5    -1.289405045E-003                                                 T               2         First time derivative of ED 1st flapwise bending-mode DOF of blade 3 (internal DOF index = DOF_BF(3,1)), m/s
          6    -6.577529712E-005                                                 T               2         First time derivative of ED 2nd flapwise bending-mode DOF of blade 1 (internal DOF index = DOF_BF(1,2)), m/s
          7    -5.561277067E-005                                                 T               2         First time derivative of ED 2nd flapwise bending-mode DOF of blade 2 (internal DOF index = DOF_BF(2,2)), m/s
          8     2.954074807E-005                                                 T               2         First time derivative of ED 2nd flapwise bending-mode DOF of blade 3 (internal DOF index = DOF_BF(3,2)), m/s
          9    -1.579455915E-003                                                 F               2         First time derivative of ED First time derivative of 1st tower fore-aft bending mode DOF (internal DOF index = DOF_TFA1), m/s/s
         10    -3.550276742E-004                                                 F               2         First time derivative of ED First time derivative of 1st tower side-to-side bending mode DOF (internal DOF index = DOF_TSS1), m/s/s
         11     4.498847295E-003                                                 T               2         First time derivative of ED First time derivative of 1st flapwise bending-mode DOF of blade 1 (internal DOF index = DOF_BF(1,1)), m/s/s
         12    -5.293706898E-003                                                 T               2         First time derivative of ED First time derivative of 1st flapwise bending-mode DOF of blade 2 (internal DOF index = DOF_BF(2,1)), m/s/s
         13    -1.882976620E-003                                                 T               2         First time derivative of ED First time derivative of 1st flapwise bending-mode DOF of blade 3 (internal DOF index = DOF_BF(3,1)), m/s/s
         14    -6.746012514E-005                                                 T               2         First time derivative of ED First time derivative of 2nd flapwise bending-mode DOF of blade 1 (internal DOF index = DOF_BF(1,2)), m/s/s
         15     3.004590108E-004                                                 T               2         First time derivative of ED First time derivative of 2nd flapwise bending-mode DOF of blade 2 (internal DOF index = DOF_BF(2,2)), m/s/s
         16     8.706027438E-005                                                 T               2         First time derivative of ED First time derivative of 2nd flapwise bending-mode DOF of blade 3 (internal DOF index = DOF_BF(3,2)), m/s/s

Order of inputs:
     Column   Operating Point                                             Rotating Frame? Derivative Order Description
   ---------- ---------------                                             --------------- ---------------- -----------
          1     0.000000000E+000                                                 T               0         ED Blade 1 pitch command, rad
          2     0.000000000E+000                                                 T               0         ED Blade 2 pitch command, rad
          3     0.000000000E+000                                                 T               0         ED Blade 3 pitch command, rad
          4     0.000000000E+000                                                 F               0         ED Yaw moment, Nm
          5     0.000000000E+000                                                 F               0         ED Generator torque, Nm
          6     0.000000000E+000                                                 F               0         ED Extended input: collective blade-pitch command, rad

Order of outputs:
        Row   Operating Point                                             Rotating Frame? Derivative Order Description
   ---------- ---------------                                             --------------- ---------------- -----------
          1     4.025056958E-001                                                 T               0         ED OoPDefl1, (m)
          2    -5.687565356E-002                                                 T               0         ED IPDefl1, (m)
          3     0.000000000E+000                                                 T               0         ED TwstDefl1, (deg)
          4     0.000000000E+000                                                 T               0         ED BldPitch1, (deg)
          5     2.401503448E+002                                                 F               0         ED Azimuth, (deg)
          6     1.400000000E+001                                                 F               0         ED RotSpeed, (rpm)
          7     1.358000000E+003                                                 F               0         ED GenSpeed, (rpm)
          8     3.657703637E-004                                                 F               0         ED TTDspFA, (m)
          9    -8.718591562E-005                                                 F               0         ED TTDspSS, (m)
         10     0.000000000E+000                                                 F               0         ED TTDspTwst, (deg)
         11    -2.523852539E+001                                                 T               0         ED Spn2MLxb1, (kN-m)
         12     1.930110931E+002                                                 T               0         ED Spn2MLyb1, (kN-m)
         13     3.639049149E+001                                                 T               0         ED RootFxb1, (kN)
         14    -3.785266578E-001                                                 T               0         ED RootFyb1, (kN)
         15     8.333936157E+002                                                 T               0         ED RootFzb1, (kN)
         16    -4.972410202E-001                                                 T               0         ED RootMxb1, (kN-m)
         17     1.060513306E+003                                                 T               0         ED RootMyb1, (kN-m)
         18     6.177384257E-001                                                 T               0         ED RootMzb1, (kN-m)
         19     2.947061360E-001                                                 F               0         ED RotTorq, (kN-m)
         20    -1.469258189E+000                                                 F               0         ED LSSGagMya, (kN-m)
         21     4.126218855E-001                                                 F               0         ED LSSGagMza, (kN-m)
         22     5.750858188E-001                                                 F               0         ED YawBrFxp, (kN)
         23    -1.290591359E-001                                                 F               0         ED YawBrFyp, (kN)
         24     2.576927189E-003                                                 F               0         ED YawBrFzp, (kN)
         25     6.323562860E-001                                                 F               0         ED YawBrMxp, (kN-m)
         26     2.259041786E+000                                                 F               0         ED YawBrMyp, (kN-m)
         27     9.981427193E-001                                                 F               0         ED YawBrMzp, (kN-m)
         28     7.251886725E-001                                                 F               0         ED TwrBsFxt, (kN)
         29    -1.630399972E-001                                                 F               0         ED TwrBsFyt, (kN)
         30     2.572403289E-003                                                 F               0         ED TwrBsFzt, (kN)
         31     1.405812550E+001                                                 F               0         ED TwrBsMxt, (kN-m)
         32     6.207165527E+001                                                 F               0         ED TwrBsMyt, (kN-m)
         33     9.981459975E-001                                                 F               0         ED TwrBsMzt, (kN-m)


Linearized state matrices:

A: 16 x 16
     0.000000000E+000   0.000000000E+000   0.000000000E+000   0.000000000E+000   0.000000000E+000   0.000000000E+000   0.000000000E+000   0.000000000E+000   1.000000000E+000   0.000000000E+000   0.000000000E+000   0.000000000E+000   0.000000000E+000   0.000000000E+000   0.000000000E+000   0.000000000E+000
     0.000000000E+000   0.000000000E+000   0.000000000E+000   0.000000000E+000   0.000000000E+000   0.000000000E+000   0.000000000E+000   0.000000000E+000   0.000000000E+000   1.000000000E+000   0.000000000E+000   0.000000000E+000   0.000000000E+000   0.000000000E+000   0.000000000E+000   0.000000000E+000
     0.000000000E+000   0.000000000E+000   0.000000000E+000   0.000000000E+000   0.000000000E+000   0.000000000E+000   0.000000000E+000   0.000000000E+000   0.000000000E+000   0.000000000E+000   1.000000000E+000   0.000000000E+000   0.000000000E+000   0.000000000E+000   0.000000000E+000   0.000000000E+000
     0.000000000E+000   0.000000000E+000   0.000000000E+000   0.000000000E+000   0.000000000E+000   0.000000000E+000   0.000000000E+000   0.000000000E+000   0.000000000E+000   0.000000000E+000   0.000000000E+000   1.000000000E+000   0.000000000E+000   0.000000000E+000   0.000000000E+000   0.000000000E+000
     0.000000000E+000   0.000000000E+000   0.000000000E+000   0.000000000E+000   0.000000000E+000   0.000000000E+000   0.000000000E+000   0.000000000E+000   0.000000000E+000   0.000000000E+000   0.000000000E+000   0.000000000E+000   1.000000000E+000   0.000000000E+000   0.000000000E+000   0.000000000E+000
     0.000000000E+000   0.000000000E+000   0.000000000E+000   0.000000000E+000   0.000000000E+000   0.000000000E+000   0.000000000E+000   0.000000000E+000   0.000000000E+000   0.000000000E+000   0.000000000E+000   0.000000000E+000   0.000000000E+000   1.000000000E+000   0.000000000E+000   0.000000000E+000
     0.000000000E+000   0.000000000E+000   0.000000000E+000   0.000000000E+000   0.000000000E+000   0.000000000E+000   0.000000000E+000   0.000000000E+000   0.000000000E+000   0.000000000E+000   0.000000000E+000   0.000000000E+000   0.000000000E+000   0.000000000E+000   1.000000000E+000   0.000000000E+000
     0.000000000E+000   0.000000000E+000   0.000000000E+000   0.000000000E+000   0.000000000E+000   0.000000000E+000   0.000000000E+000   0.000000000E+000   0.000000000E+000   0.000000000E+000   0.000000000E+000   0.000000000E+000   0.000000000E+000   0.000000000E+000   0.000000000E+000   1.000000000E+000
    -4.706871534E+000  -6.739399379E-002   8.009520622E-002   2.040937729E-001   7.199345203E-002  -4.483379910E-001  -7.655728035E-001  -3.776833988E-001  -1.313045703E-002  -6.208406700E-003  -2.157095299E-004   1.065819430E-003   4.193430715E-005   1.896282821E-004  -1.164106786E-003   3.618180656E-007
    -7.006168457E-002  -4.112151449E+000  -3.953933889E-003   3.903552808E-002   1.655402210E-002  -8.373557373E-003  -3.283703055E-001  -8.106214639E-002  -1.833092934E-003  -1.385994422E-002  -2.390133998E-003  -8.812440874E-004   2.027745956E-003   2.838185417E-003   3.726868963E-004  -2.853387531E-003
     7.365387624E+000  -3.110315127E-001  -2.176431321E+001  -3.157212405E-001  -1.110875872E-001   4.916261167E+000   1.165862111E+000   5.833601433E-001  -4.819825453E+000   5.105262150E-001  -4.085133486E-002  -1.758702845E-003   1.397687548E-004  -6.315781032E-003   1.861125332E-003  -2.896721058E-004
     2.060424895E+001   3.574456066E+000  -3.465102597E-001  -2.256059367E+001  -3.275001028E-001   1.963947325E+000   7.819030568E+000   1.713479808E+000   7.720966589E-002  -2.807251927E-001   2.848281437E-003  -4.489828474E-002  -1.800574821E-003  -3.091825616E-003  -1.548890428E-003   2.274529870E-003
     6.623276572E+000   1.662855429E+000  -1.107428033E-001  -3.009205320E-001  -2.174568065E+001   6.315258080E-001   1.198177657E+000   4.775096144E+000   4.840854019E+000   5.193119631E-001   1.213984184E-003  -1.157578233E-003  -4.178376598E-002  -1.348333332E-003   1.489304989E-003  -5.211436206E-003
    -9.330893578E+000  -1.894968536E-001   2.437804969E-001   4.050835423E-001   1.429298116E-001  -1.625757025E+002  -1.521974591E+000  -7.497426433E-001   2.588254233E+000  -3.385348533E-001   2.528565609E-002   2.100684268E-003   1.106759406E-004  -1.152122614E-001  -2.302419251E-003  -3.805613887E-005
    -1.610213805E+001  -6.543815167E+000   2.661020241E-001   8.385340800E-001   2.700640713E-001  -1.536369123E+000  -1.647926875E+002  -1.407899263E+000  -5.601671919E-002   7.521503975E-002  -4.403396048E-003   2.800898399E-002   3.256387562E-003   5.002814630E-003  -1.189771725E-001  -4.380548740E-003
    -7.875676513E+000  -1.654650131E+000   1.320868293E-001   3.549952989E-001   2.113741435E-001  -7.508060492E-001  -1.399857797E+000  -1.623471035E+002  -2.628325134E+000  -3.430882006E-001  -1.256176241E-003   1.446878846E-003   2.657969192E-002   1.380729675E-003  -1.801527558E-003  -1.167070395E-001
B: 16 x 6
     0.000000000E+000   0.000000000E+000   0.000000000E+000   0.000000000E+000   0.000000000E+000   0.000000000E+000
     0.000000000E+000   0.000000000E+000   0.000000000E+000   0.000000000E+000   0.000000000E+000   0.000000000E+000
     0.000000000E+000   0.000000000E+000   0.000000000E+000   0.000000000E+000   0.000000000E+000   0.000000000E+000
     0.000000000E+000   0.000000000E+000   0.000000000E+000   0.000000000E+000   0.000000000E+000   0.000000000E+000
     0.000000000E+000   0.000000000E+000   0.000000000E+000   0.000000000E+000   0.000000000E+000   0.000000000E+000
     0.000000000E+000   0.000000000E+000   0.000000000E+000   0.000000000E+000   0.000000000E+000   0.000000000E+000
     0.000000000E+000   0.000000000E+000   0.000000000E+000   0.000000000E+000   0.000000000E+000   0.000000000E+000
     0.000000000E+000   0.000000000E+000   0.000000000E+000   0.000000000E+000   0.000000000E+000   0.000000000E+000
     1.221808570E-002   2.564827276E-002   8.709161591E-003   0.000000000E+000   0.000000000E+000   4.657552006E-002
    -2.547538307E-003   1.259338106E-002  -1.323208483E-004   0.000000000E+000   0.000000000E+000   9.913521906E-003
    -1.341056352E+000  -3.889746113E-002  -1.365474773E-002   0.000000000E+000   0.000000000E+000  -1.393608561E+000
    -5.130723319E-002  -1.443803069E+000  -3.791523355E-002   0.000000000E+000   0.000000000E+000  -1.533025536E+000
    -1.615155721E-002  -4.074878340E-002  -1.335541261E+000   0.000000000E+000   0.000000000E+000  -1.392441602E+000
     2.670426260E+000   5.101093449E-002   1.726143507E-002   0.000000000E+000   0.000000000E+000   2.738698630E+000
     3.760652812E-002   2.753644578E+000   2.939165762E-002   0.000000000E+000   0.000000000E+000   2.820642764E+000
     1.941985572E-002   4.749534379E-002   2.663231836E+000   0.000000000E+000   0.000000000E+000   2.730147036E+000
C: 33 x 16
     0.000000000E+000   0.000000000E+000   9.910330306E-001   0.000000000E+000   0.000000000E+000   1.012657451E+000   0.000000000E+000   0.000000000E+000   0.000000000E+000   0.000000000E+000   0.000000000E+000   0.000000000E+000   0.000000000E+000   0.000000000E+000   0.000000000E+000   0.000000000E+000
     0.000000000E+000   0.000000000E+000  -1.265685071E-001   0.000000000E+000   0.000000000E+000   4.159170465E-002   0.000000000E+000   0.000000000E+000   0.000000000E+000   0.000000000E+000   0.000000000E+000   0.000000000E+000   0.000000000E+000   0.000000000E+000   0.000000000E+000   0.000000000E+000
     0.000000000E+000   0.000000000E+000   0.000000000E+000   0.000000000E+000   0.000000000E+000   0.000000000E+000   0.000000000E+000   0.000000000E+000   0.000000000E+000   0.000000000E+000   0.000000000E+000   0.000000000E+000   0.000000000E+000   0.000000000E+000   0.000000000E+000   0.000000000E+000
     0.000000000E+000   0.000000000E+000   0.000000000E+000   0.000000000E+000   0.000000000E+000   0.000000000E+000   0.000000000E+000   0.000000000E+000   0.000000000E+000   0.000000000E+000   0.000000000E+000   0.000000000E+000   0.000000000E+000   0.000000000E+000   0.000000000E+000   0.000000000E+000
     0.000000000E+000   0.000000000E+000   0.000000000E+000   0.000000000E+000   0.000000000E+000   0.000000000E+000   0.000000000E+000   0.000000000E+000   0.000000000E+000   0.000000000E+000   0.000000000E+000   0.000000000E+000   0.000000000E+000   0.000000000E+000   0.000000000E+000   0.000000000E+000
     0.000000000E+000   0.000000000E+000   0.000000000E+000   0.000000000E+000   0.000000000E+000   0.000000000E+000   0.000000000E+000   0.000000000E+000   0.000000000E+000   0.000000000E+000   0.000000000E+000   0.000000000E+000   0.000000000E+000   0.000000000E+000   0.000000000E+000   0.000000000E+000
     0.000000000E+000   0.000000000E+000   0.000000000E+000   0.000000000E+000   0.000000000E+000   0.000000000E+000   0.000000000E+000   0.000000000E+000   0.000000000E+000   0.000000000E+000   0.000000000E+000   0.000000000E+000   0.000000000E+000   0.000000000E+000   0.000000000E+000   0.000000000E+000
     9.999999439E-001   0.000000000E+000   0.000000000E+000   0.000000000E+000   0.000000000E+000   0.000000000E+000   0.000000000E+000   0.000000000E+000   0.000000000E+000   0.000000000E+000   0.000000000E+000   0.000000000E+000   0.000000000E+000   0.000000000E+000   0.000000000E+000   0.000000000E+000
     0.000000000E+000  -1.000000005E+000   0.000000000E+000   0.000000000E+000   0.000000000E+000   0.000000000E+000   0.000000000E+000   0.000000000E+000   0.000000000E+000   0.000000000E+000   0.000000000E+000   0.000000000E+000   0.000000000E+000   0.000000000E+000   0.000000000E+000   0.000000000E+000
     0.000000000E+000   0.000000000E+000   0.000000000E+000   0.000000000E+000   0.000000000E+000   0.000000000E+000   0.000000000E+000   0.000000000E+000   0.000000000E+000   0.000000000E+000   0.000000000E+000   0.000000000E+000   0.000000000E+000   0.000000000E+000   0.000000000E+000   0.000000000E+000
    -9.769852858E+000   1.115656841E+002   2.769762320E+001  -5.548468078E-001  -2.710618879E-001  -6.135287279E+002   7.023433547E+000   1.264351310E+000   2.857317684E+001  -2.860976046E+000  -2.724972271E+000   2.653445198E-002  -5.485030613E-002  -5.216709686E-001  -1.497088618E-002   7.703120664E-002
    -2.179173452E+001   4.311440033E-001   4.920273701E+002   9.383413836E-001   3.305500590E-001   4.670429601E+002  -3.487105880E+000  -1.734312749E+000   3.831393122E+000  -5.237102216E-001   1.139990780E+000   5.117644178E-003  -1.421567827E-004   3.191419772E-001  -5.686271309E-003   3.553919568E-004
     4.056184320E+001  -3.980035507E+000   4.593111860E+001  -1.718870969E+000  -6.032067683E-001  -2.041413158E+002   6.245924793E+000   3.170984735E+000  -4.535058559E+000   6.196447525E-001   1.655149191E-001  -1.017309476E-002   1.883577371E-003  -1.876469532E-001   1.039521474E-002  -3.198527611E-003
    -7.169000985E+000   4.311305535E+000  -8.582580819E+000   2.720576795E-001   9.303314597E-002   7.809443942E+001  -8.263612651E-001  -4.952150916E-001  -3.013971604E+000   3.307388563E-001   2.079734990E-001   2.706878934E-003  -2.172125099E-003  -1.192999434E-001  -1.666593922E-003   2.661969052E-003
    -1.224169524E+001  -6.579437134E+001  -1.350489436E-002   1.105411142E+000   4.344311280E-001  -1.796861734E+000  -7.048133288E+000  -2.184949750E+000   6.746605237E-001   2.338257605E+001   1.028504323E+000  -1.165685618E-002   3.255390324E-002  -1.334852190E+000   2.843135655E-003  -4.549017047E-002
     5.190693575E+001   2.776780708E+002   3.186162814E+002  -4.675410531E+000  -1.836757396E+000  -2.701789876E+003   2.979322685E+001   9.246165210E+000   1.143598787E+002  -1.175686876E+001  -8.533639460E+000   4.870195587E-002  -1.369980464E-001   2.351962452E+000  -1.368120209E-002   1.923822734E-001
     2.926769170E+002  -9.462812458E+001   1.770386597E+003  -1.182545413E+001  -4.104634944E+000  -4.652283999E+003   3.998301671E+001   2.167037996E+001  -6.519057013E+001   8.111894581E+000   6.094545589E+000  -8.785289172E-002   4.605879760E-002  -4.415389671E+000   7.960779833E-002  -6.539212005E-002
     8.749815548E-002  -1.577194797E+000   1.233042806E+000   9.902386047E-003   4.840688337E-003   6.682980546E+000  -1.072173110E-001  -2.228279804E-002  -4.557026663E-001   4.934928717E-002   4.075998682E-002  -2.114304493E-004   6.609457447E-004  -2.003244507E-003   7.635374072E-004  -1.418791328E-003
    -1.040003294E+003   3.092284804E+003   3.534347422E+002   3.497410115E+002   3.360486834E+002  -2.920392890E+003  -2.752197072E+003  -2.849050087E+003  -1.661611668E+000  -1.063195471E+001  -7.242288356E+000  -8.084817179E+000  -1.052448190E+001   6.164537258E-001   2.152197466E+000   4.873034558E+000
    -2.760231066E+002  -7.031771566E+002   1.852874918E+003  -9.344765671E+002  -8.896288742E+002  -5.037213647E+003   2.637885782E+003   2.238967196E+003  -1.206377661E+002   1.987509062E+000   8.021846166E+000  -3.665379648E+000  -4.518456393E+000  -6.916949231E+000   3.409541586E+000   3.519457654E+000
     3.119581047E+002  -8.699537870E+002   2.597736620E+001   1.579264194E+003  -1.618996447E+003  -2.378236774E+002  -4.222447023E+003   4.481910516E+003  -4.725247363E+001  -1.427607804E+001  -1.238023152E+000   7.421061616E+000  -6.508879857E+000   9.292583426E-001  -6.425378296E+000   5.641356568E+000
     1.589381305E+003   3.650738612E+000   1.991786892E+001  -2.217501877E+001   2.143396879E+001  -6.113965538E+001   4.922590634E+001  -7.344469097E+001   4.877616723E+000  -8.982751513E-002   1.187661613E-001  -1.513211752E-001   8.296847352E-002  -1.099285629E-001   1.459550343E-001  -8.924919340E-002
    -1.710394404E+001  -1.491817259E+003   4.402314024E+000   5.086864458E+000   8.615776094E+000  -4.984813102E+001  -3.898254670E+001  -5.993924686E+001   2.820077266E-001  -5.527988556E+000  -3.811813004E-002  -1.185350524E-001  -2.959780570E-001  -1.169333245E-001   2.497982040E-002   2.262574781E-001
     1.982997317E+001   2.675533678E+000   2.191706918E+000  -3.077738215E+000  -1.282351247E+001  -4.326863201E+001   1.208197993E+001   9.244693249E+001   5.219479003E+000   3.133183041E-001  -7.181341412E-001   1.055945996E+000  -3.714620592E-001   7.978651814E-001  -1.368591520E+000   6.067778848E-001
    -9.989375766E+002   6.008749183E+003   2.005908969E+002   3.438749118E+002   4.549995797E+002  -2.407862248E+003  -2.710381832E+003  -3.077763647E+003   8.786264666E+000   5.570415064E-001  -7.969671850E+000  -7.940124896E+000  -8.955681846E+000   1.699077580E+000   2.154022321E+000   3.495324319E+000
     3.653830656E+003  -3.933499150E+002  -8.422111289E+002   1.791645717E+003  -9.476570597E+002   1.995620727E+003  -4.887275558E+003   2.865742137E+003   4.507401751E+001  -1.322883888E+001  -7.040775008E+000   1.127407461E+001  -4.357648474E+000   6.487541347E+000  -1.127048960E+001   4.820064497E+000
     1.403330068E+002   2.768519610E+002  -1.663170956E+003   2.665176020E+001   1.536034743E+003   4.868660838E+003  -2.331307266E+002  -3.823713951E+003   1.260596265E+002   6.174488193E+000  -8.538305090E+000  -5.361661016E-001   1.148467989E+001   9.350927401E+000   4.381885650E-001  -1.050902623E+001
     2.037628227E+003   1.006885297E+001   1.229022129E+001  -4.161139600E+001   1.457776604E+001  -1.844361535E+001   1.221333779E+002  -3.747635117E+001   6.128098850E+000   5.014165930E-001   1.393037905E-001  -2.528150097E-001   7.897239638E-002  -1.279813637E-001   2.568053950E-001  -8.927973490E-002
    -2.383131403E+001  -1.886666448E+003   4.022652684E+000   8.835065148E+000   1.020531882E+001  -5.065208316E+001  -7.051271843E+001  -6.772301373E+001   1.059841583E-001  -6.858822382E+000  -2.676176747E-001  -2.031541029E-001  -1.012730681E-001   1.555880998E-001   6.076716574E-002  -4.772629389E-002
     1.980499541E+001   2.669324326E+000   2.191610851E+000  -3.077495549E+000  -1.282361131E+001  -4.326848763E+001   1.208124693E+001   9.244716572E+001   5.220426341E+000   3.136397484E-001  -7.181353212E-001   1.055947107E+000  -3.714629616E-001   7.978660490E-001  -1.368592821E+000   6.067786223E-001