
Linearized model: Predictions were generated on 17-Jan-2026 at 06:32:31 using OpenFAST, compiled as a 64-bit application using single precision at commit v3.5.1
 linked with  NWTC Subroutine Library; ElastoDyn

Description from the FAST input file: FAST Certification Test #18: NREL 5.0 MW Baseline Wind Turbine (Onshore)

Simulation information:
   Simulation time:                   142.5000 s
   Rotor Speed:                         1.4661 rad/s
   Azimuth:                             1.5708 rad
   Wind Speed:                          0.0000 m/s
   Number of continuous states:        16
   Number of discrete states:           0
   Number of constraint states:         0
   Number of inputs:                    6
   Number of outputs:                  33
   Jacobians included in this file?    No

Order of continuous states:
   Row/Column Operating Point                                             Rotating Frame? Derivative Order Description
   ---------- ---------------                                             --------------- ---------------- -----------
          1    -2.009828459E-004                                                 F               2         ED 1st tower fore-aft bending mode DOF (internal DOF index = DOF_TFA1), m
          2    -4.357930084E-005                                                 F               2         ED 1st tower side-to-side bending mode DOF (internal DOF index = DOF_TSS1), m
          3     4.384919405E-001                                                 T               2         ED 1st flapwise bending-mode DOF of blade 1 (internal DOF index = DOF_BF(1,1)), m
          4     4.393150508E-001                                                 T               2         ED 1st flapwise bending-mode DOF of blade 2 (internal DOF index = DOF_BF(2,1)), m
          5     4.391027093E-001                                                 T               2         ED 1st flapwise bending-mode DOF of blade 3 (internal DOF index = DOF_BF(3,1)), m
          6    -3.196238354E-002                                                 T               2         ED 2nd flapwise bending-mode DOF of blade 1 (internal DOF index = DOF_BF(1,2)), m
          7    -3.199252486E-002                                                 T               2         ED 2nd flapwise bending-mode DOF of blade 2 (internal DOF index = DOF_BF(2,2)), m
          8    -3.197783604E-002                                                 T               2         ED 2nd flapwise bending-mode DOF of blade 3 (internal DOF index = DOF_BF(3,2)), m
          9    -8.218148141E-004                                                 F               2         ED First time derivative of 1st tower fore-aft bending mode DOF (internal DOF index = DOF_TFA1), m/s
         10    -2.230610844E-004                                                 F               2         ED First time derivative of 1st tower side-to-side bending mode DOF (internal DOF index = DOF_TSS1), m/s
         11     2.615759331E-005                                                 T               2         ED First time derivative of 1st flapwise bending-mode DOF of blade 1 (internal DOF index = DOF_BF(1,1)), m/s
         12     5.869010347E-004                                                 T               2         ED First time derivative of 1st flapwise bending-mode DOF of blade 2 (internal DOF index = DOF_BF(2,1)), m/s
         13    -2.182176569E-003                                                 T               2         ED First time derivative of 1st flapwise bending-mode DOF of blade 3 (internal DOF index = DOF_BF(3,1)), m/s
         14     1.932548548E-005                                                 T               2         ED First time derivative of 2nd flapwise bending-mode DOF of blade 1 (internal DOF index = DOF_BF(1,2)), m/s
         15     2.905507245E-005                                                 T               2         ED First time derivative of 2nd flapwise bending-mode DOF of blade 2 (internal DOF index = DOF_BF(2,2)), m/s
         16     1.167923692E-004                                                 T               2         ED First time derivative of 2nd flapwise bending-mode DOF of blade 3 (internal DOF index = DOF_BF(3,2)), m/s

Order of continuous state derivatives:
   Row/Column Operating Point                                             Rotating Frame? Derivative Order Description
   ---------- ---------------                                             --------------- ---------------- -----------
          1    -8.218148141E-004                                                 F               2         First time derivative of ED 1st tower fore-aft bending mode DOF (internal DOF index = DOF_TFA1), m/s
          2    -2.230610844E-004                                                 F               2         First time derivative of ED 1st tower side-to-side bending mode DOF (internal DOF index = DOF_TSS1), m/s
          3     2.615759331E-005                                                 T               2         First time derivative of ED 1st flapwise bending-mode DOF of blade 1 (internal DOF index = DOF_BF(1,1)), m/s
          4     5.869010347E-004                                                 T               2         First time derivative of ED 1st flapwise bending-mode DOF of blade 2 (internal DOF index = DOF_BF(2,1)), m/s
          5    -2.182176569E-003                                                 T               2         First time derivative of ED 1st flapwise bending-mode DOF of blade 3 (internal DOF index = DOF_BF(3,1)), m/s
          6     1.932548548E-005                                                 T               2         First time derivative of ED 2nd flapwise bending-mode DOF of blade 1 (internal DOF index = DOF_BF(1,2)), m/s
          7     2.905507245E-005                                                 T               2         First time derivative of ED 2nd flapwise bending-mode DOF of blade 2 (internal DOF index = DOF_BF(2,2)), m/s
          8     1.167923692E-004                                                 T               2         First time derivative of ED 2nd flapwise bending-mode DOF of blade 3 (internal DOF index = DOF_BF(3,2)), m/s
          9     8.923731511E-004                                                 F               2         First time derivative of ED First time derivative of 1st tower fore-aft bending mode DOF (internal DOF index = DOF_TFA1), m/s/s
         10     1.786563953E-004                                                 F               2         First time derivative of ED First time derivative of 1st tower side-to-side bending mode DOF (internal DOF index = DOF_TSS1), m/s/s
         11     6.110139191E-003                                                 T               2         First time derivative of ED First time derivative of 1st flapwise bending-mode DOF of blade 1 (internal DOF index = DOF_BF(1,1)), m/s/s
         12    -4.062965512E-003                                                 T               2         First time derivative of ED First time derivative of 1st flapwise bending-mode DOF of blade 2 (internal DOF index = DOF_BF(2,1)), m/s/s
         13    -7.545525441E-004                                                 T               2         First time derivative of ED First time derivative of 1st flapwise bending-mode DOF of blade 3 (internal DOF index = DOF_BF(3,1)), m/s/s
         14    -2.402343525E-004                                                 T               2         First time derivative of ED First time derivative of 2nd flapwise bending-mode DOF of blade 1 (internal DOF index = DOF_BF(1,2)), m/s/s
         15     1.324186596E-004                                                 T               2         First time derivative of ED First time derivative of 2nd flapwise bending-mode DOF of blade 2 (internal DOF index = DOF_BF(2,2)), m/s/s
         16    -7.975661720E-005                                                 T               2         First time derivative of ED First time derivative of 2nd flapwise bending-mode DOF of blade 3 (internal DOF index = DOF_BF(3,2)), m/s/s

Order of inputs:
     Column   Operating Point                                             Rotating Frame? Derivative Order Description
   ---------- ---------------                                             --------------- ---------------- -----------
          1     0.000000000E+000                                                 T               0         ED Blade 1 pitch command, rad
          2     0.000000000E+000                                                 T               0         ED Blade 2 pitch command, rad
          3     0.000000000E+000                                                 T               0         ED Blade 3 pitch command, rad
          4     0.000000000E+000                                                 F               0         ED Yaw moment, Nm
          5     0.000000000E+000                                                 F               0         ED Generator torque, Nm
          6     0.000000000E+000                                                 F               0         ED Extended input: collective blade-pitch command, rad

Order of outputs:
        Row   Operating Point                                             Rotating Frame? Derivative Order Description
   ---------- ---------------                                             --------------- ---------------- -----------
          1     4.021930695E-001                                                 T               0         ED OoPDefl1, (m)
          2    -5.682864040E-002                                                 T               0         ED IPDefl1, (m)
          3     0.000000000E+000                                                 T               0         ED TwstDefl1, (deg)
          4     0.000000000E+000                                                 T               0         ED BldPitch1, (deg)
          5     9.000033569E+001                                                 F               0         ED Azimuth, (deg)
          6     1.400000000E+001                                                 F               0         ED RotSpeed, (rpm)
          7     1.358000000E+003                                                 F               0         ED GenSpeed, (rpm)
          8    -2.009828459E-004                                                 F               0         ED TTDspFA, (m)
          9     4.357930084E-005                                                 F               0         ED TTDspSS, (m)
         10     0.000000000E+000                                                 F               0         ED TTDspTwst, (deg)
         11    -2.524487114E+001                                                 T               0         ED Spn2MLxb1, (kN-m)
         12     1.928665771E+002                                                 T               0         ED Spn2MLyb1, (kN-m)
         13     3.634100723E+001                                                 T               0         ED RootFxb1, (kN)
         14    -3.752101362E-001                                                 T               0         ED RootFyb1, (kN)
         15     8.333905640E+002                                                 T               0         ED RootFzb1, (kN)
         16    -6.081900001E-001                                                 T               0         ED RootMxb1, (kN-m)
         17     1.059478760E+003                                                 T               0         ED RootMyb1, (kN-m)
         18     6.171621680E-001                                                 T               0         ED RootMzb1, (kN-m)
         19    -1.122139469E-001                                                 F               0         ED RotTorq, (kN-m)
         20    -1.597520471E+000                                                 F               0         ED LSSGagMya, (kN-m)
         21     4.641623497E-001                                                 F               0         ED LSSGagMza, (kN-m)
         22    -3.209330440E-001                                                 F               0         ED YawBrFxp, (kN)
         23     6.421254575E-002                                                 F               0         ED YawBrFyp, (kN)
         24    -4.202527052E-004                                                 F               0         ED YawBrFzp, (kN)
         25    -3.730498552E-001                                                 F               0         ED YawBrMxp, (kN-m)
         26    -1.113060236E+000                                                 F               0         ED YawBrMyp, (kN-m)
         27    -1.559556484E+000                                                 F               0         ED YawBrMzp, (kN-m)
         28    -4.053595066E-001                                                 F               0         ED TwrBsFxt, (kN)
         29     8.121544123E-002                                                 F               0         ED TwrBsFyt, (kN)
         30    -4.209311737E-004                                                 F               0         ED TwrBsFzt, (kN)
         31    -7.058641434E+000                                                 F               0         ED TwrBsMxt, (kN-m)
         32    -3.453254700E+001                                                 F               0         ED TwrBsMyt, (kN-m)
         33    -1.559555650E+000                                                 F               0         ED TwrBsMzt, (kN-m)


Linearized state matrices:

A: 16 x 16
     0.000000000E+000   0.000000000E+000   0.000000000E+000   0.000000000E+000   0.000000000E+000   0.000000000E+000   0.000000000E+000   0.000000000E+000   1.000000000E+000   0.000000000E+000   0.000000000E+000   0.000000000E+000   0.000000000E+000   0.000000000E+000   0.000000000E+000   0.000000000E+000
     0.000000000E+000   0.000000000E+000   0.000000000E+000   0.000000000E+000   0.000000000E+000   0.000000000E+000   0.000000000E+000   0.000000000E+000   0.000000000E+000   1.000000000E+000   0.000000000E+000   0.000000000E+000   0.000000000E+000   0.000000000E+000   0.000000000E+000   0.000000000E+000
     0.000000000E+000   0.000000000E+000   0.000000000E+000   0.000000000E+000   0.000000000E+000   0.000000000E+000   0.000000000E+000   0.000000000E+000   0.000000000E+000   0.000000000E+000   1.000000000E+000   0.000000000E+000   0.000000000E+000   0.000000000E+000   0.000000000E+000   0.000000000E+000
     0.000000000E+000   0.000000000E+000   0.000000000E+000   0.000000000E+000   0.000000000E+000   0.000000000E+000   0.000000000E+000   0.000000000E+000   0.000000000E+000   0.000000000E+000   0.000000000E+000   1.000000000E+000   0.000000000E+000   0.000000000E+000   0.000000000E+000   0.000000000E+000
     0.000000000E+000   0.000000000E+000   0.000000000E+000   0.000000000E+000   0.000000000E+000   0.000000000E+000   0.000000000E+000   0.000000000E+000   0.000000000E+000   0.000000000E+000   0.000000000E+000   0.000000000E+000   1.000000000E+000   0.000000000E+000   0.000000000E+000   0.000000000E+000
     0.000000000E+000   0.000000000E+000   0.000000000E+000   0.000000000E+000   0.000000000E+000   0.000000000E+000   0.000000000E+000   0.000000000E+000   0.000000000E+000   0.000000000E+000   0.000000000E+000   0.000000000E+000   0.000000000E+000   1.000000000E+000   0.000000000E+000   0.000000000E+000
     0.000000000E+000   0.000000000E+000   0.000000000E+000   0.000000000E+000   0.000000000E+000   0.000000000E+000   0.000000000E+000   0.000000000E+000   0.000000000E+000   0.000000000E+000   0.000000000E+000   0.000000000E+000   0.000000000E+000   0.000000000E+000   1.000000000E+000   0.000000000E+000
     0.000000000E+000   0.000000000E+000   0.000000000E+000   0.000000000E+000   0.000000000E+000   0.000000000E+000   0.000000000E+000   0.000000000E+000   0.000000000E+000   0.000000000E+000   0.000000000E+000   0.000000000E+000   0.000000000E+000   0.000000000E+000   0.000000000E+000   1.000000000E+000
    -4.706870914E+000  -6.739302226E-002   1.142736381E-001   4.701477432E-002   1.948946467E-001  -4.903551420E-001  -3.469749105E-001  -7.542612127E-001  -1.312983679E-002  -6.207834784E-003   4.480139640E-004  -4.433330599E-004   8.870696702E-004  -4.354351418E-004   4.576921831E-004  -9.959329181E-004
    -7.006717557E-002  -4.112140788E+000   2.910942205E-002  -7.608139169E-003   3.013507949E-002  -1.817255571E-001   4.563456064E-002  -2.817097841E-001  -1.834634661E-003  -1.385937383E-002   2.135716517E-003  -1.279559521E-003  -2.099298110E-003  -3.155518559E-003   1.538305374E-003   1.982209007E-003
     1.112627720E+001   2.786922813E+000  -2.192607570E+001  -1.058253604E-001  -4.781055336E-001   5.485489235E+000   7.877245610E-001   1.955826151E+000   5.610468196E+000   2.534420601E-001  -4.336731643E-002   1.861562939E-003  -7.467108684E-004  -3.289164324E-003  -2.060742920E-003   1.077846137E-003
     3.874668758E+000  -6.009665452E-001  -8.969251458E-002  -2.167845077E+001  -1.560870749E-001   3.758032640E-001   4.508675135E+000   5.777100013E-001  -2.781925283E+000   7.071745827E-001  -2.881647188E-005  -4.078630877E-002  -1.067573904E-003  -1.444195563E-004  -6.476884744E-003   1.138750359E-003
     1.959198394E+001   2.740502926E+000  -4.920553790E-001  -1.907235380E-001  -2.246595822E+001   2.145437629E+000   1.413855358E+000   7.516342186E+000  -2.730236167E+000  -2.114226298E-001  -3.138833751E-003   2.607070594E-003  -4.337619723E-002   3.696833059E-003  -2.821543824E-003  -3.391855607E-003
    -1.027581429E+001  -3.651677100E+000   3.579513731E-001   9.555820843E-002   4.486998725E-001  -1.629060279E+002  -7.141945465E-001  -1.877237653E+000  -3.043897917E+000  -2.039404095E-001   2.854492569E-002  -2.052994854E-003   1.358085269E-004  -1.192300521E-001   2.304728088E-003  -4.719043340E-004
    -7.185036578E+000   8.756423534E-001   1.679147708E-001   1.588514122E-001   2.910241509E-001  -7.070092628E-001  -1.622285351E+002  -1.086998181E+000   1.487811071E+000  -4.414117891E-001   1.771338062E-004   2.536979401E-002   1.856931525E-003   8.484703866E-005  -1.152502506E-001  -1.995627125E-003
    -1.584784328E+001  -5.611798808E+000   4.206544106E-001   1.474141801E-001   7.770353243E-001  -1.879473057E+000  -1.101707416E+000  -1.645805817E+002   1.459992740E+000   3.901022398E-002   4.297169523E-003  -3.160064734E-003   2.597327717E-002  -5.590848379E-003   3.547048992E-003  -1.162866086E-001
B: 16 x 6
     0.000000000E+000   0.000000000E+000   0.000000000E+000   0.000000000E+000   0.000000000E+000   0.000000000E+000
     0.000000000E+000   0.000000000E+000   0.000000000E+000   0.000000000E+000   0.000000000E+000   0.000000000E+000
     0.000000000E+000   0.000000000E+000   0.000000000E+000   0.000000000E+000   0.000000000E+000   0.000000000E+000
     0.000000000E+000   0.000000000E+000   0.000000000E+000   0.000000000E+000   0.000000000E+000   0.000000000E+000
     0.000000000E+000   0.000000000E+000   0.000000000E+000   0.000000000E+000   0.000000000E+000   0.000000000E+000
     0.000000000E+000   0.000000000E+000   0.000000000E+000   0.000000000E+000   0.000000000E+000   0.000000000E+000
     0.000000000E+000   0.000000000E+000   0.000000000E+000   0.000000000E+000   0.000000000E+000   0.000000000E+000
     0.000000000E+000   0.000000000E+000   0.000000000E+000   0.000000000E+000   0.000000000E+000   0.000000000E+000
     1.352555677E-002   7.756760167E-003   2.530951034E-002   0.000000000E+000   0.000000000E+000   4.659182727E-002
     4.680595146E-003  -5.414513435E-003   1.061355397E-002   0.000000000E+000   0.000000000E+000   9.879635680E-003
    -1.356438286E+000  -1.480131093E-002  -6.637029314E-002   0.000000000E+000   0.000000000E+000  -1.437609890E+000
    -1.041886382E-002  -1.329937074E+000  -1.919992209E-002   0.000000000E+000   0.000000000E+000  -1.359555860E+000
    -5.897935151E-002  -2.897773808E-002  -1.434599188E+000   0.000000000E+000   0.000000000E+000  -1.522556278E+000
     2.677981922E+000   1.222015831E-002   6.398081317E-002   0.000000000E+000   0.000000000E+000   2.754182893E+000
     1.958058460E-002   2.659994554E+000   3.619835423E-002   0.000000000E+000   0.000000000E+000   2.715773493E+000
     5.140701739E-002   1.887318959E-002   2.745867206E+000   0.000000000E+000   0.000000000E+000   2.816147413E+000
C: 33 x 16
     0.000000000E+000   0.000000000E+000   9.910330306E-001   0.000000000E+000   0.000000000E+000   1.012657451E+000   0.000000000E+000   0.000000000E+000   0.000000000E+000   0.000000000E+000   0.000000000E+000   0.000000000E+000   0.000000000E+000   0.000000000E+000   0.000000000E+000   0.000000000E+000
     0.000000000E+000   0.000000000E+000  -1.265685071E-001   0.000000000E+000   0.000000000E+000   4.159170465E-002   0.000000000E+000   0.000000000E+000   0.000000000E+000   0.000000000E+000   0.000000000E+000   0.000000000E+000   0.000000000E+000   0.000000000E+000   0.000000000E+000   0.000000000E+000
     0.000000000E+000   0.000000000E+000   0.000000000E+000   0.000000000E+000   0.000000000E+000   0.000000000E+000   0.000000000E+000   0.000000000E+000   0.000000000E+000   0.000000000E+000   0.000000000E+000   0.000000000E+000   0.000000000E+000   0.000000000E+000   0.000000000E+000   0.000000000E+000
     0.000000000E+000   0.000000000E+000   0.000000000E+000   0.000000000E+000   0.000000000E+000   0.000000000E+000   0.000000000E+000   0.000000000E+000   0.000000000E+000   0.000000000E+000   0.000000000E+000   0.000000000E+000   0.000000000E+000   0.000000000E+000   0.000000000E+000   0.000000000E+000
     0.000000000E+000   0.000000000E+000   0.000000000E+000   0.000000000E+000   0.000000000E+000   0.000000000E+000   0.000000000E+000   0.000000000E+000   0.000000000E+000   0.000000000E+000   0.000000000E+000   0.000000000E+000   0.000000000E+000   0.000000000E+000   0.000000000E+000   0.000000000E+000
     0.000000000E+000   0.000000000E+000   0.000000000E+000   0.000000000E+000   0.000000000E+000   0.000000000E+000   0.000000000E+000   0.000000000E+000   0.000000000E+000   0.000000000E+000   0.000000000E+000   0.000000000E+000   0.000000000E+000   0.000000000E+000   0.000000000E+000   0.000000000E+000
     0.000000000E+000   0.000000000E+000   0.000000000E+000   0.000000000E+000   0.000000000E+000   0.000000000E+000   0.000000000E+000   0.000000000E+000   0.000000000E+000   0.000000000E+000   0.000000000E+000   0.000000000E+000   0.000000000E+000   0.000000000E+000   0.000000000E+000   0.000000000E+000
     1.000000005E+000   0.000000000E+000   0.000000000E+000   0.000000000E+000   0.000000000E+000   0.000000000E+000   0.000000000E+000   0.000000000E+000   0.000000000E+000   0.000000000E+000   0.000000000E+000   0.000000000E+000   0.000000000E+000   0.000000000E+000   0.000000000E+000   0.000000000E+000
     0.000000000E+000  -9.999999439E-001   0.000000000E+000   0.000000000E+000   0.000000000E+000   0.000000000E+000   0.000000000E+000   0.000000000E+000   0.000000000E+000   0.000000000E+000   0.000000000E+000   0.000000000E+000   0.000000000E+000   0.000000000E+000   0.000000000E+000   0.000000000E+000
     0.000000000E+000   0.000000000E+000   0.000000000E+000   0.000000000E+000   0.000000000E+000   0.000000000E+000   0.000000000E+000   0.000000000E+000   0.000000000E+000   0.000000000E+000   0.000000000E+000   0.000000000E+000   0.000000000E+000   0.000000000E+000   0.000000000E+000   0.000000000E+000
    -1.296281041E+002   2.012050260E+002   2.918362803E+001   1.705157282E+000   4.022277301E+000  -6.175280868E+002  -1.206480173E+001  -7.412543315E+000  -3.319353480E+001  -1.105461458E+000  -2.882237655E+000   5.067445064E-002   1.287762756E-001  -3.040822430E-001  -6.312649633E-002  -1.260752967E-001
    -2.168744158E+001  -7.271313478E+000   4.922286641E+002   2.025378762E-001   9.440987333E-001   4.665635364E+002  -1.512903560E+000  -3.933833570E+000  -4.551463489E+000  -3.300946276E-001   1.146245678E+000  -4.264703482E-003   5.330879352E-004   3.113233542E-001   4.975487395E-003  -1.066175870E-003
     4.866581601E+001  -3.054435700E+000   4.547055284E+001  -4.936838520E-001  -1.990221613E+000  -2.030924653E+002   3.633793910E+000   7.551723690E+000   5.490786051E+000   3.713252679E-001   1.636491113E-001   3.420647584E-003  -1.110599865E-002  -1.872027133E-001  -3.287375601E-003   1.217217452E-002
     2.485367485E+001  -3.023718950E+001  -9.109623204E+000  -3.100762893E-001  -8.264415059E-001   8.006689810E+001   2.210158285E+000   1.969934146E+000   3.510720218E+000   8.756540478E-002   2.192814880E-001  -7.131786446E-003  -2.040414896E-002  -1.361172018E-001   8.979199909E-003   2.011990481E-002
    -2.304424777E+000   7.560888553E+001  -5.876761398E-001   1.759900970E-001  -4.055733011E-001   2.361224161E+000  -1.105979770E+000   4.605879760E+000  -8.263593397E-001   2.391352191E+001   1.028788637E+000   2.317155558E-002   3.909311525E-002  -1.322058079E+000  -2.700978872E-002  -3.838233134E-002
    -6.697929379E+002   9.446040757E+002   3.290496297E+002   8.618560368E+000   2.141274744E+001  -2.736135133E+003  -6.116567674E+001  -4.455297412E+001  -1.329935785E+002  -4.013478873E+000  -9.128814370E+000   2.323708098E-001   6.165891496E-001   3.200222664E+000  -2.904357472E-001  -6.055684589E-001
     4.674698817E+002  -1.717050954E+002   1.765331075E+003  -5.029791286E+000  -1.817417604E+001  -4.638996604E+003   3.666223426E+001   6.316878797E+001   7.728056656E+001   4.359344923E+000   6.186947498E+000  -1.137254262E-002  -1.799704869E-001  -4.560389590E+000   1.990194958E-002   1.819606819E-001
     2.258737165E+000  -3.335545551E+000   1.203785024E+000  -2.936828636E-002  -7.121527280E-002   6.764456929E+000   2.081278030E-001   1.403548344E-001   5.293055579E-001   1.742731374E-002   4.306767452E-002  -8.301733991E-004  -2.158312013E-003  -3.528931071E-003   1.039799124E-003   2.128186991E-003
    -1.040002296E+003   3.092271081E+003   3.363794111E+002   3.485173259E+002   3.543164341E+002  -2.799124092E+003  -2.937664229E+003  -2.784830405E+003  -1.659868790E+000  -1.063205510E+001  -1.051048945E+001  -8.135884782E+000  -7.210036536E+000   4.984988924E+000   1.632881837E+000   9.599593141E-001
     8.413361671E+001   1.042900230E+003   1.840066876E+003  -9.513035944E+002  -9.068697199E+002  -4.957675861E+003   2.730021858E+003   2.355959740E+003   1.281488457E+002   5.381672607E+000   7.893715704E+000  -3.244976229E+000  -4.346512489E+000  -6.593634175E+000   3.012999127E+000   3.503428922E+000
    -4.079553236E+002   4.045552928E+002   3.954809692E+001   1.590039110E+003  -1.603345269E+003  -2.922680593E+002  -4.240902172E+003   4.434549563E+003  -1.905835085E+001   1.337100389E+001  -9.186647469E-001   7.771585814E+000  -6.649076986E+000   6.129511715E-001  -6.692633047E+000   5.959558006E+000
     1.589381305E+003   3.650040047E+000   7.192643431E+000   3.073392771E+001  -1.874992878E+001  -3.535352004E+001  -9.229032680E+001   4.228485710E+001   4.877490021E+000  -8.974857030E-002  -4.296563815E-003   1.729477475E-001  -1.181363124E-001  -5.594646820E-003  -1.655536513E-001   1.178637989E-001
    -1.710463992E+001  -1.491818133E+003   8.464766164E+000   5.646725069E+000   3.993232616E+000  -5.538756993E+001  -5.589077162E+001  -3.749162191E+001   2.820820420E-001  -5.528017794E+000  -2.997047096E-001  -1.048173480E-001  -4.823041946E-002   2.419876502E-001  -3.753601953E-002  -7.177425159E-002
     1.982425600E+001   2.672454830E+000  -1.323471651E+001  -1.549053169E+000   1.075451948E+000   9.875245207E+001  -1.134687041E+001  -2.614282115E+001   5.207870215E+000   3.073201420E-001   1.915245259E-001  -1.036896154E+000   8.101964840E-001  -9.909622299E-002   1.264273829E+000  -1.127696596E+000
    -9.989355805E+002   6.008738703E+003   4.800668670E+002   2.507528013E+002   2.686350583E+002  -3.118711909E+003  -2.558235337E+003  -2.519039336E+003   8.787406929E+000   5.571721065E-001  -8.856370896E+000  -8.307503557E+000  -7.706116507E+000   3.471490152E+000   2.158064210E+000   1.660281550E+000
     3.653831405E+003  -3.933632635E+002  -5.559493225E+001  -1.522540937E+003   1.579923660E+003   4.809646404E+002   3.972729087E+003  -4.479559954E+003   4.508294899E+001  -1.323141579E+001   1.536600568E+000  -1.062918703E+001   8.961862334E+000  -9.659136911E-001   1.027166189E+001  -9.264147904E+000
     1.403296073E+002   2.768793129E+002   1.813720391E+003  -1.005000902E+003  -9.092018019E+002  -4.749237768E+003   3.205398759E+003   2.355650904E+003   1.260545584E+002   6.176276635E+000   1.236144295E+001  -3.789246239E+000  -6.161036092E+000  -1.167338191E+001   4.887083646E+000   6.091829062E+000
     2.037627978E+003   1.006803526E+001  -3.689868931E+000   2.625659766E+001  -3.731024263E+001   1.134383500E+001  -5.924699886E+001   1.141151135E+002   6.127857142E+000   5.014375475E-001  -4.696275648E-002   2.151714355E-001  -2.026171453E-001   3.587306977E-002  -2.091446960E-001   2.127124980E-001
    -2.383248163E+001  -1.886666198E+003   1.125984450E+001   4.916190247E+000   6.886807551E+000  -7.283678747E+001  -5.150895538E+001  -6.454145609E+001   1.059249497E-001  -6.858796554E+000  -9.463278287E-002  -2.276817357E-001  -2.498044511E-001  -6.100577118E-002   1.101730684E-001   1.185565356E-001
     1.983809376E+001   2.675556094E+000  -1.323472317E+001  -1.548953632E+000   1.075335404E+000   9.875247428E+001  -1.134709045E+001  -2.614245465E+001   5.206138302E+000   3.068607575E-001   1.915245779E-001  -1.036895183E+000   8.101959287E-001  -9.909622299E-002   1.264273048E+000  -1.127695988E+000