
Linearized model: Predictions were generated on 17-Jan-2026 at 06:32:31 using OpenFAST, compiled as a 64-bit application using single precision at commit v3.5.1
 linked with  NWTC Subroutine Library; ElastoDyn

Description from the FAST input file: FAST Certification Test #18: NREL 5.0 MW Baseline Wind Turbine (Onshore)

Simulation information:
   Simulation time:                   144.6438 s
   Rotor Speed:                         1.4661 rad/s
   Azimuth:                             4.7137 rad
   Wind Speed:                          0.0000 m/s
   Number of continuous states:        16
   Number of discrete states:           0
   Number of constraint states:         0
   Number of inputs:                    6
   Number of outputs:                  33
   Jacobians included in this file?    No

Order of continuous states:
   Row/Column Operating Point                                             Rotating Frame? Derivative Order Description
   ---------- ---------------                                             --------------- ---------------- -----------
          1     4.205996229E-004                                                 F               2         ED 1st tower fore-aft bending mode DOF (internal DOF index = DOF_TFA1), m
          2     1.179316532E-004                                                 F               2         ED 1st tower side-to-side bending mode DOF (internal DOF index = DOF_TSS1), m
          3     4.393553734E-001                                                 T               2         ED 1st flapwise bending-mode DOF of blade 1 (internal DOF index = DOF_BF(1,1)), m
          4     4.396845400E-001                                                 T               2         ED 1st flapwise bending-mode DOF of blade 2 (internal DOF index = DOF_BF(2,1)), m
          5     4.389365613E-001                                                 T               2         ED 1st flapwise bending-mode DOF of blade 3 (internal DOF index = DOF_BF(3,1)), m
          6    -3.202624992E-002                                                 T               2         ED 2nd flapwise bending-mode DOF of blade 1 (internal DOF index = DOF_BF(1,2)), m
          7    -3.203029931E-002                                                 T               2         ED 2nd flapwise bending-mode DOF of blade 2 (internal DOF index = DOF_BF(2,2)), m
          8    -3.200411424E-002                                                 T               2         ED 2nd flapwise bending-mode DOF of blade 3 (internal DOF index = DOF_BF(3,2)), m
          9    -1.663394796E-004                                                 F               2         ED First time derivative of 1st tower fore-aft bending mode DOF (internal DOF index = DOF_TFA1), m/s
         10     5.072609838E-006                                                 F               2         ED First time derivative of 1st tower side-to-side bending mode DOF (internal DOF index = DOF_TSS1), m/s
         11     1.585868769E-003                                                 T               2         ED First time derivative of 1st flapwise bending-mode DOF of blade 1 (internal DOF index = DOF_BF(1,1)), m/s
         12    -8.923097048E-004                                                 T               2         ED First time derivative of 1st flapwise bending-mode DOF of blade 2 (internal DOF index = DOF_BF(2,1)), m/s
         13    -8.238481823E-004                                                 T               2         ED First time derivative of 1st flapwise bending-mode DOF of blade 3 (internal DOF index = DOF_BF(3,1)), m/s
         14    -4.454934242E-005                                                 T               2         ED First time derivative of 2nd flapwise bending-mode DOF of blade 1 (internal DOF index = DOF_BF(1,2)), m/s
         15     5.459521344E-005                                                 T               2         ED First time derivative of 2nd flapwise bending-mode DOF of blade 2 (internal DOF index = DOF_BF(2,2)), m/s
         16     2.575944382E-005                                                 T               2         ED First time derivative of 2nd flapwise bending-mode DOF of blade 3 (internal DOF index = DOF_BF(3,2)), m/s

Order of continuous state derivatives:
   Row/Column Operating Point                                             Rotating Frame? Derivative Order Description
   ---------- ---------------                                             --------------- ---------------- -----------
          1    -1.663394796E-004                                                 F               2         First time derivative of ED 1st tower fore-aft bending mode DOF (internal DOF index = DOF_TFA1), m/s
          2     5.072609838E-006                                                 F               2         First time derivative of ED 1st tower side-to-side bending mode DOF (internal DOF index = DOF_TSS1), m/s
          3     1.585868769E-003                                                 T               2         First time derivative of ED 1st flapwise bending-mode DOF of blade 1 (internal DOF index = DOF_BF(1,1)), m/s
          4    -8.923097048E-004                                                 T               2         First time derivative of ED 1st flapwise bending-mode DOF of blade 2 (internal DOF index = DOF_BF(2,1)), m/s
          5    -8.238481823E-004                                                 T               2         First time derivative of ED 1st flapwise bending-mode DOF of blade 3 (internal DOF index = DOF_BF(3,1)), m/s
          6    -4.454934242E-005                                                 T               2         First time derivative of ED 2nd flapwise bending-mode DOF of blade 1 (internal DOF index = DOF_BF(1,2)), m/s
          7     5.459521344E-005                                                 T               2         First time derivative of ED 2nd flapwise bending-mode DOF of blade 2 (internal DOF index = DOF_BF(2,2)), m/s
          8     2.575944382E-005                                                 T               2         First time derivative of ED 2nd flapwise bending-mode DOF of blade 3 (internal DOF index = DOF_BF(3,2)), m/s
          9    -1.785941422E-003                                                 F               2         First time derivative of ED First time derivative of 1st tower fore-aft bending mode DOF (internal DOF index = DOF_TFA1), m/s/s
         10    -4.780806194E-004                                                 F               2         First time derivative of ED First time derivative of 1st tower side-to-side bending mode DOF (internal DOF index = DOF_TSS1), m/s/s
         11    -1.329111168E-003                                                 T               2         First time derivative of ED First time derivative of 1st flapwise bending-mode DOF of blade 1 (internal DOF index = DOF_BF(1,1)), m/s/s
         12    -5.915571935E-003                                                 T               2         First time derivative of ED First time derivative of 1st flapwise bending-mode DOF of blade 2 (internal DOF index = DOF_BF(2,1)), m/s/s
         13     3.935144749E-003                                                 T               2         First time derivative of ED First time derivative of 1st flapwise bending-mode DOF of blade 3 (internal DOF index = DOF_BF(3,1)), m/s/s
         14     1.851947018E-004                                                 T               2         First time derivative of ED First time derivative of 2nd flapwise bending-mode DOF of blade 1 (internal DOF index = DOF_BF(1,2)), m/s/s
         15     2.613084216E-004                                                 T               2         First time derivative of ED First time derivative of 2nd flapwise bending-mode DOF of blade 2 (internal DOF index = DOF_BF(2,2)), m/s/s
         16    -8.040528337E-005                                                 T               2         First time derivative of ED First time derivative of 2nd flapwise bending-mode DOF of blade 3 (internal DOF index = DOF_BF(3,2)), m/s/s

Order of inputs:
     Column   Operating Point                                             Rotating Frame? Derivative Order Description
   ---------- ---------------                                             --------------- ---------------- -----------
          1     0.000000000E+000                                                 T               0         ED Blade 1 pitch command, rad
          2     0.000000000E+000                                                 T               0         ED Blade 2 pitch command, rad
          3     0.000000000E+000                                                 T               0         ED Blade 3 pitch command, rad
          4     0.000000000E+000                                                 F               0         ED Yaw moment, Nm
          5     0.000000000E+000                                                 F               0         ED Generator torque, Nm
          6     0.000000000E+000                                                 F               0         ED Extended input: collective blade-pitch command, rad

Order of outputs:
        Row   Operating Point                                             Rotating Frame? Derivative Order Description
   ---------- ---------------                                             --------------- ---------------- -----------
          1     4.029840827E-001                                                 T               0         ED OoPDefl1, (m)
          2    -5.694058165E-002                                                 T               0         ED IPDefl1, (m)
          3     0.000000000E+000                                                 T               0         ED TwstDefl1, (deg)
          4     0.000000000E+000                                                 T               0         ED BldPitch1, (deg)
          5     2.700753479E+002                                                 F               0         ED Azimuth, (deg)
          6     1.400000000E+001                                                 F               0         ED RotSpeed, (rpm)
          7     1.358000000E+003                                                 F               0         ED GenSpeed, (rpm)
          8     4.205996229E-004                                                 F               0         ED TTDspFA, (m)
          9    -1.179316532E-004                                                 F               0         ED TTDspSS, (m)
         10     0.000000000E+000                                                 F               0         ED TTDspTwst, (deg)
         11    -2.522204018E+001                                                 T               0         ED Spn2MLxb1, (kN-m)
         12     1.932444458E+002                                                 T               0         ED Spn2MLyb1, (kN-m)
         13     3.642476654E+001                                                 T               0         ED RootFxb1, (kN)
         14    -3.869193494E-001                                                 T               0         ED RootFyb1, (kN)
         15     8.333888550E+002                                                 T               0         ED RootFzb1, (kN)
         16    -2.770800889E-001                                                 T               0         ED RootMxb1, (kN-m)
         17     1.061578247E+003                                                 T               0         ED RootMyb1, (kN-m)
         18     6.184134483E-001                                                 T               0         ED RootMzb1, (kN-m)
         19     4.425876439E-001                                                 F               0         ED RotTorq, (kN-m)
         20    -4.190243781E-003                                                 F               0         ED LSSGagMya, (kN-m)
         21     1.420574427E+000                                                 F               0         ED LSSGagMza, (kN-m)
         22     6.551845670E-001                                                 F               0         ED YawBrFxp, (kN)
         23    -1.749558598E-001                                                 F               0         ED YawBrFyp, (kN)
         24     4.158325028E-003                                                 F               0         ED YawBrFzp, (kN)
         25     7.746680975E-001                                                 F               0         ED YawBrMxp, (kN-m)
         26     2.758270741E+000                                                 F               0         ED YawBrMyp, (kN-m)
         27    -8.534292132E-002                                                 F               0         ED YawBrMzp, (kN-m)
         28     8.253768682E-001                                                 F               0         ED TwrBsFxt, (kN)
         29    -2.208577991E-001                                                 F               0         ED TwrBsFyt, (kN)
         30     4.151958507E-003                                                 F               0         ED TwrBsFzt, (kN)
         31     1.896520615E+001                                                 F               0         ED TwrBsMxt, (kN-m)
         32     7.085164642E+001                                                 F               0         ED TwrBsMyt, (kN-m)
         33    -8.533796668E-002                                                 F               0         ED TwrBsMzt, (kN-m)


Linearized state matrices:

A: 16 x 16
     0.000000000E+000   0.000000000E+000   0.000000000E+000   0.000000000E+000   0.000000000E+000   0.000000000E+000   0.000000000E+000   0.000000000E+000   1.000000000E+000   0.000000000E+000   0.000000000E+000   0.000000000E+000   0.000000000E+000   0.000000000E+000   0.000000000E+000   0.000000000E+000
     0.000000000E+000   0.000000000E+000   0.000000000E+000   0.000000000E+000   0.000000000E+000   0.000000000E+000   0.000000000E+000   0.000000000E+000   0.000000000E+000   1.000000000E+000   0.000000000E+000   0.000000000E+000   0.000000000E+000   0.000000000E+000   0.000000000E+000   0.000000000E+000
     0.000000000E+000   0.000000000E+000   0.000000000E+000   0.000000000E+000   0.000000000E+000   0.000000000E+000   0.000000000E+000   0.000000000E+000   0.000000000E+000   0.000000000E+000   1.000000000E+000   0.000000000E+000   0.000000000E+000   0.000000000E+000   0.000000000E+000   0.000000000E+000
     0.000000000E+000   0.000000000E+000   0.000000000E+000   0.000000000E+000   0.000000000E+000   0.000000000E+000   0.000000000E+000   0.000000000E+000   0.000000000E+000   0.000000000E+000   0.000000000E+000   1.000000000E+000   0.000000000E+000   0.000000000E+000   0.000000000E+000   0.000000000E+000
     0.000000000E+000   0.000000000E+000   0.000000000E+000   0.000000000E+000   0.000000000E+000   0.000000000E+000   0.000000000E+000   0.000000000E+000   0.000000000E+000   0.000000000E+000   0.000000000E+000   0.000000000E+000   1.000000000E+000   0.000000000E+000   0.000000000E+000   0.000000000E+000
     0.000000000E+000   0.000000000E+000   0.000000000E+000   0.000000000E+000   0.000000000E+000   0.000000000E+000   0.000000000E+000   0.000000000E+000   0.000000000E+000   0.000000000E+000   0.000000000E+000   0.000000000E+000   0.000000000E+000   1.000000000E+000   0.000000000E+000   0.000000000E+000
     0.000000000E+000   0.000000000E+000   0.000000000E+000   0.000000000E+000   0.000000000E+000   0.000000000E+000   0.000000000E+000   0.000000000E+000   0.000000000E+000   0.000000000E+000   0.000000000E+000   0.000000000E+000   0.000000000E+000   0.000000000E+000   1.000000000E+000   0.000000000E+000
     0.000000000E+000   0.000000000E+000   0.000000000E+000   0.000000000E+000   0.000000000E+000   0.000000000E+000   0.000000000E+000   0.000000000E+000   0.000000000E+000   0.000000000E+000   0.000000000E+000   0.000000000E+000   0.000000000E+000   0.000000000E+000   0.000000000E+000   1.000000000E+000
    -4.706871010E+000  -6.739473322E-002   1.232935711E-001   1.903792723E-001   4.250960131E-002  -5.710149384E-001  -7.138860600E-001  -3.066915744E-001  -1.312986070E-002  -6.207377561E-003   1.475823891E-004   1.037452176E-003  -2.932438937E-004  -2.146839623E-004  -1.107128304E-003   3.470288302E-004
    -7.006163993E-002  -4.112150670E+000   5.343072756E-003   4.203146305E-002   4.260369600E-003  -9.705178379E-002  -3.240972447E-001   3.347972152E-003  -1.835835356E-003  -1.385741040E-002  -2.965220343E-003   4.532727076E-004   1.267443881E-003   3.407502199E-003  -1.300381052E-003  -1.739541180E-003
     1.194753239E+001   4.999867979E-001  -2.195166809E+001  -4.863794535E-001  -1.081932708E-001   5.671416691E+000   1.837147392E+000   7.778493783E-001  -5.544892361E+000   2.453158541E-001  -4.108578560E-002  -2.668409980E-003   6.426185469E-004  -6.044465235E-003   2.912945907E-003  -7.413160237E-004
     1.918084242E+001   3.885299954E+000  -5.055108230E-001  -2.244869521E+001  -1.764156435E-001   2.404698843E+000   7.399334098E+000   1.242839949E+000   2.853789846E+000  -2.075196980E-001   2.004784413E-003  -4.556074176E-002   7.799815323E-005  -2.120660827E-003  -6.709541976E-004   1.181564096E-004
     3.464445733E+000   5.411039254E-001  -9.116925838E-002  -1.448145354E-001  -2.167016903E+001   4.308810682E-001   5.629320544E-001   4.439684116E+000   2.789415543E+000   7.112808319E-001   2.461545942E-004  -8.159602126E-004  -4.088504489E-002  -2.497629871E-004   9.684007588E-004  -6.383720353E-003
    -1.193650105E+001  -1.945142216E+000   3.992655631E-001   4.997133849E-001   1.093688758E-001  -1.631731069E+002  -1.945678740E+000  -7.743477375E-001   2.979790994E+000  -1.998933408E-001   2.483698287E-002   2.819902824E-003  -1.948027754E-004  -1.146806219E-001  -3.361727081E-003   1.271181355E-004
    -1.501649335E+001  -6.466178873E+000   3.986819230E-001   7.520761824E-001   1.411359083E-001  -1.956377615E+000  -1.644409742E+002  -9.664174594E-001  -1.555301618E+000   3.696005678E-002  -4.041241168E-003   2.971675209E-002   9.982902237E-004   4.501190842E-003  -1.211003205E-001  -1.545758661E-003
    -6.355621708E+000   2.340454655E-002   1.663841511E-001   2.559764568E-001   1.424042117E-001  -7.685711670E-001  -9.552324738E-001  -1.621011903E+002  -1.520618844E+000  -4.434978182E-001   2.818120900E-004   1.388680786E-003   2.531944251E-002  -3.847475505E-004  -1.459231576E-003  -1.150450438E-001
B: 16 x 6
     0.000000000E+000   0.000000000E+000   0.000000000E+000   0.000000000E+000   0.000000000E+000   0.000000000E+000
     0.000000000E+000   0.000000000E+000   0.000000000E+000   0.000000000E+000   0.000000000E+000   0.000000000E+000
     0.000000000E+000   0.000000000E+000   0.000000000E+000   0.000000000E+000   0.000000000E+000   0.000000000E+000
     0.000000000E+000   0.000000000E+000   0.000000000E+000   0.000000000E+000   0.000000000E+000   0.000000000E+000
     0.000000000E+000   0.000000000E+000   0.000000000E+000   0.000000000E+000   0.000000000E+000   0.000000000E+000
     0.000000000E+000   0.000000000E+000   0.000000000E+000   0.000000000E+000   0.000000000E+000   0.000000000E+000
     0.000000000E+000   0.000000000E+000   0.000000000E+000   0.000000000E+000   0.000000000E+000   0.000000000E+000
     0.000000000E+000   0.000000000E+000   0.000000000E+000   0.000000000E+000   0.000000000E+000   0.000000000E+000
     1.754326910E-002   2.327338460E-002   5.755589550E-003   0.000000000E+000   0.000000000E+000   4.657224326E-002
     1.878835185E-003   1.204897659E-002  -4.005478139E-003   0.000000000E+000   0.000000000E+000   9.922333635E-003
    -1.365846620E+000  -6.001143300E-002  -1.428230409E-002   0.000000000E+000   0.000000000E+000  -1.440140357E+000
    -7.291083751E-002  -1.426871248E+000  -1.986129891E-002   0.000000000E+000   0.000000000E+000  -1.519643385E+000
    -1.310608196E-002  -1.852945322E-002  -1.326938952E+000   0.000000000E+000   0.000000000E+000  -1.358574487E+000
     2.691919873E+000   6.407106833E-002   1.283047985E-002   0.000000000E+000   0.000000000E+000   2.768821422E+000
     5.842873275E-002   2.739668748E+000   1.214151223E-002   0.000000000E+000   0.000000000E+000   2.810238993E+000
     2.364345596E-002   3.110026451E-002   2.656021508E+000   0.000000000E+000   0.000000000E+000   2.710765229E+000
C: 33 x 16
     0.000000000E+000   0.000000000E+000   9.910330306E-001   0.000000000E+000   0.000000000E+000   1.012657451E+000   0.000000000E+000   0.000000000E+000   0.000000000E+000   0.000000000E+000   0.000000000E+000   0.000000000E+000   0.000000000E+000   0.000000000E+000   0.000000000E+000   0.000000000E+000
     0.000000000E+000   0.000000000E+000  -1.265685071E-001   0.000000000E+000   0.000000000E+000   4.159161788E-002   0.000000000E+000   0.000000000E+000   0.000000000E+000   0.000000000E+000   0.000000000E+000   0.000000000E+000   0.000000000E+000   0.000000000E+000   0.000000000E+000   0.000000000E+000
     0.000000000E+000   0.000000000E+000   0.000000000E+000   0.000000000E+000   0.000000000E+000   0.000000000E+000   0.000000000E+000   0.000000000E+000   0.000000000E+000   0.000000000E+000   0.000000000E+000   0.000000000E+000   0.000000000E+000   0.000000000E+000   0.000000000E+000   0.000000000E+000
     0.000000000E+000   0.000000000E+000   0.000000000E+000   0.000000000E+000   0.000000000E+000   0.000000000E+000   0.000000000E+000   0.000000000E+000   0.000000000E+000   0.000000000E+000   0.000000000E+000   0.000000000E+000   0.000000000E+000   0.000000000E+000   0.000000000E+000   0.000000000E+000
     0.000000000E+000   0.000000000E+000   0.000000000E+000   0.000000000E+000   0.000000000E+000   0.000000000E+000   0.000000000E+000   0.000000000E+000   0.000000000E+000   0.000000000E+000   0.000000000E+000   0.000000000E+000   0.000000000E+000   0.000000000E+000   0.000000000E+000   0.000000000E+000
     0.000000000E+000   0.000000000E+000   0.000000000E+000   0.000000000E+000   0.000000000E+000   0.000000000E+000   0.000000000E+000   0.000000000E+000   0.000000000E+000   0.000000000E+000   0.000000000E+000   0.000000000E+000   0.000000000E+000   0.000000000E+000   0.000000000E+000   0.000000000E+000
     0.000000000E+000   0.000000000E+000   0.000000000E+000   0.000000000E+000   0.000000000E+000   0.000000000E+000   0.000000000E+000   0.000000000E+000   0.000000000E+000   0.000000000E+000   0.000000000E+000   0.000000000E+000   0.000000000E+000   0.000000000E+000   0.000000000E+000   0.000000000E+000
     1.000000005E+000   0.000000000E+000   0.000000000E+000   0.000000000E+000   0.000000000E+000   0.000000000E+000   0.000000000E+000   0.000000000E+000   0.000000000E+000   0.000000000E+000   0.000000000E+000   0.000000000E+000   0.000000000E+000   0.000000000E+000   0.000000000E+000   0.000000000E+000
     0.000000000E+000  -1.000000005E+000   0.000000000E+000   0.000000000E+000   0.000000000E+000   0.000000000E+000   0.000000000E+000   0.000000000E+000   0.000000000E+000   0.000000000E+000   0.000000000E+000   0.000000000E+000   0.000000000E+000   0.000000000E+000   0.000000000E+000   0.000000000E+000
     0.000000000E+000   0.000000000E+000   0.000000000E+000   0.000000000E+000   0.000000000E+000   0.000000000E+000   0.000000000E+000   0.000000000E+000   0.000000000E+000   0.000000000E+000   0.000000000E+000   0.000000000E+000   0.000000000E+000   0.000000000E+000   0.000000000E+000   0.000000000E+000
    -2.795487318E+001   2.185877018E+002   2.793774821E+001  -9.572393509E-001   5.924383920E-002  -6.113114819E+002   1.245768753E+001  -2.243011911E+000   3.292478712E+001  -9.110973502E-001  -2.630162582E+000  -1.716098911E-002  -6.948801236E-002  -6.297101235E-001   6.188262448E-002   9.493407646E-002
    -2.585042636E+001  -4.110838310E+000   4.923357082E+002   1.081244489E+000   2.367265824E-001   4.659010858E+002  -4.205353025E+000  -1.677450036E+000   4.414235942E+000  -3.243560210E-001   1.138711369E+000   6.041663266E-003  -4.264703482E-004   3.205635450E-001  -7.463231093E-003   3.553919568E-004
     4.472145967E+001  -8.460078295E+000   4.546336059E+001  -1.722087266E+000  -3.958711007E-001  -2.027736788E+002   6.089019244E+000   2.931539404E+000  -5.235418060E+000   3.474975756E-001   1.583626560E-001  -8.893683719E-003   5.606308119E-003  -1.794729382E-001   7.729775061E-003  -7.107839136E-003
    -7.105517650E+000  -3.244866601E+001  -8.496565415E+000   5.958048284E-001   9.271391792E-002   7.721687672E+001  -3.544089371E+000  -4.007127608E-001  -3.486774596E+000   3.891297625E-002   1.826794482E-001   5.011373654E-003   9.563791913E-003  -8.852660937E-002  -1.176819382E-002  -1.319947940E-002
    -4.857356167E+000  -7.571467549E+001   5.202938248E-002   9.177641893E-001   1.105979770E-001  -2.823233705E+000  -6.503672810E+000  -1.705881393E-001   8.054009507E-001   2.340253642E+001   1.013151390E+000   9.098034094E-003   2.317155558E-002  -1.320636512E+000  -2.274508524E-002  -3.127449220E-002
     2.162291199E+000   1.020002629E+003   3.182283000E+002  -9.812280858E+000  -9.195217136E-001  -2.684605964E+003   7.809998131E+001  -1.822286141E+000   1.319305172E+002  -2.880661815E+000  -7.961853783E+000  -1.090953353E-001  -3.153773213E-001   1.687459317E+000   3.194591923E-001   4.324488461E-001
     3.450669015E+002  -2.289075252E+002   1.766650574E+003  -1.172736595E+001  -2.909949342E+000  -4.643308220E+003   3.450713744E+001   2.293273219E+001  -7.518273162E+001   3.998062216E+000   5.959212332E+000  -5.089212822E-002   9.410779016E-002  -4.256174075E+000   1.137254262E-002  -1.222548331E-001
     3.528219655E-001  -3.628777818E+000   1.229933543E+000   2.037534277E-002   2.012962255E-005   6.650505912E+000  -2.235818001E-001   2.997786686E-002  -5.258972857E-001   1.395374145E-002   3.897900111E-002   3.081914625E-004   1.144611986E-003   1.854701775E-003  -1.075893619E-003  -1.560392810E-003
    -1.040006663E+003   3.092279065E+003   3.564415714E+002   3.442844655E+002   3.384952727E+002  -2.881845302E+003  -2.743445012E+003  -2.896365018E+003  -1.643411474E+000  -1.062711666E+001  -6.724624432E+000  -9.100353027E+000  -1.002625569E+001   7.858326995E-002   3.430333403E+000   4.088218057E+000
    -8.359892829E+001  -1.043422755E+003   1.852130869E+003  -9.392491257E+002  -8.948092095E+002  -5.043231499E+003   2.644539431E+003   2.270497570E+003  -1.281261798E+002  -5.400162752E+000   7.691443817E+000  -3.445383975E+000  -4.548119127E+000  -6.545303646E+000   3.066999963E+000   3.558425133E+000
     4.080647002E+002  -4.031885688E+002   2.204048292E+001   1.572530370E+003  -1.620842637E+003  -2.264721918E+002  -4.175055150E+003   4.500307026E+003   1.922724405E+001  -1.336011535E+001  -1.052897816E+000   7.635407390E+000  -6.786364899E+000   6.946829921E-001  -6.622884599E+000   6.037404115E+000
     1.589381180E+003   3.650630915E+000   5.554297061E+000  -1.792975967E+001   3.155223546E+001  -2.145035902E+001   3.532565509E+001  -9.923413034E+001   4.877518286E+000  -8.983336289E-002   3.770764192E-002  -1.391889822E-001   1.519743467E-001  -2.977379413E-002   1.302011752E-001  -1.533349704E-001
    -1.710440406E+001  -1.491817384E+003   3.603546723E+000   6.426815967E+000   8.074560233E+000  -4.377765602E+001  -4.330345487E+001  -6.168931347E+001   2.825060049E-001  -5.528013896E+000  -2.048015564E-003  -1.970937156E-001  -2.534413360E-001  -1.537181273E-001   1.264560242E-001   1.601918833E-001
     1.983002190E+001   2.673055200E+000   4.097756999E+000  -7.601266440E+000  -1.020582636E+001  -5.792314716E+001   5.228163858E+001   6.690304675E+001   5.214881685E+000   3.111227425E-001  -2.129404313E-001   1.013124528E+000  -8.347772520E-001   1.226097696E-001  -1.240670458E+000   1.151158452E+000
    -9.989398221E+002   6.008743194E+003   1.862584368E+002   4.157157611E+002   3.974880275E+002  -2.345257111E+003  -2.906226256E+003  -2.944537509E+003   8.802912278E+000   5.623464037E-001  -7.721462776E+000  -8.269883098E+000  -8.874066083E+000   1.401840797E+000   2.710441183E+000   3.196296694E+000
     3.653824918E+003  -3.933686902E+002   5.912957624E+001   1.522492319E+003  -1.579842062E+003  -5.045981611E+002  -3.986238246E+003   4.464952634E+003   4.508114008E+001  -1.322559337E+001  -1.606231154E+000   1.053639974E+001  -9.059542924E+000   9.824366406E-001  -1.025417411E+001   9.289701419E+000
     1.403354394E+002   2.768578555E+002  -1.880632736E+003   9.400670958E+002   8.400797722E+002   5.289806704E+003  -2.669552983E+003  -1.808419969E+003   1.260525156E+002   6.178692736E+000  -1.075597867E+001   5.408757947E+000   7.755278876E+000   1.122472872E+001  -5.370363260E+000  -6.550837209E+000
     2.037628227E+003   1.006881788E+001  -6.187224037E+000  -3.606010700E+001   2.750386128E+001   3.292836142E+001   1.033112091E+002  -7.002660887E+001   6.127945833E+000   5.013113332E-001   2.365119590E-002  -2.379803109E-001   1.798941332E-001  -9.327650617E-003   2.356262556E-001  -1.863739281E-001
    -2.383177795E+001  -1.886666448E+003   4.116578891E+000   1.046269923E+001   8.483666908E+000  -5.309643017E+001  -7.442344597E+001  -6.136800582E+001   1.062156323E-001  -6.858605040E+000  -2.867683035E-001  -1.535728470E-001  -1.317392172E-001   1.734708400E-001   1.596487306E-003  -6.841642231E-003
     1.980143997E+001   2.664660734E+000   4.097778656E+000  -7.601019887E+000  -1.020603293E+001  -5.792335262E+001   5.228090003E+001   6.690352430E+001   5.214483062E+000   3.111159505E-001  -2.129410387E-001   1.013125638E+000  -8.347791262E-001   1.226099540E-001  -1.240671846E+000   1.151160100E+000