
Linearized model: Predictions were generated on 17-Jan-2026 at 06:32:31 using OpenFAST, compiled as a 64-bit application using single precision at commit v3.5.1
 linked with  NWTC Subroutine Library; ElastoDyn

Description from the FAST input file: FAST Certification Test #18: NREL 5.0 MW Baseline Wind Turbine (Onshore)

Simulation information:
   Simulation time:                    35.9875 s
   Rotor Speed:                         2.0420 rad/s
   Azimuth:                             4.3727 rad
   Wind Speed:                          0.0000 m/s
   Number of continuous states:        16
   Number of discrete states:           0
   Number of constraint states:         0
   Number of inputs:                    6
   Number of outputs:                  33
   Jacobians included in this file?    No

Order of continuous states:
   Row/Column Operating Point                                             Rotating Frame? Derivative Order Description
   ---------- ---------------                                             --------------- ---------------- -----------
          1    -5.618170835E-004                                                 F               2         ED 1st tower fore-aft bending mode DOF (internal DOF index = DOF_TFA1), m
          2     2.333049197E-003                                                 F               2         ED 1st tower side-to-side bending mode DOF (internal DOF index = DOF_TSS1), m
          3     7.479063869E-001                                                 T               2         ED 1st flapwise bending-mode DOF of blade 1 (internal DOF index = DOF_BF(1,1)), m
          4     7.394937873E-001                                                 T               2         ED 1st flapwise bending-mode DOF of blade 2 (internal DOF index = DOF_BF(2,1)), m
          5     7.330150604E-001                                                 T               2         ED 1st flapwise bending-mode DOF of blade 3 (internal DOF index = DOF_BF(3,1)), m
          6    -7.192426920E-002                                                 T               2         ED 2nd flapwise bending-mode DOF of blade 1 (internal DOF index = DOF_BF(1,2)), m
          7    -7.142657042E-002                                                 T               2         ED 2nd flapwise bending-mode DOF of blade 2 (internal DOF index = DOF_BF(2,2)), m
          8    -7.114058733E-002                                                 T               2         ED 2nd flapwise bending-mode DOF of blade 3 (internal DOF index = DOF_BF(3,2)), m
          9    -1.161328331E-002                                                 F               2         ED First time derivative of 1st tower fore-aft bending mode DOF (internal DOF index = DOF_TFA1), m/s
         10    -8.405158878E-004                                                 F               2         ED First time derivative of 1st tower side-to-side bending mode DOF (internal DOF index = DOF_TSS1), m/s
         11     1.538473833E-002                                                 T               2         ED First time derivative of 1st flapwise bending-mode DOF of blade 1 (internal DOF index = DOF_BF(1,1)), m/s
         12    -2.879718505E-002                                                 T               2         ED First time derivative of 1st flapwise bending-mode DOF of blade 2 (internal DOF index = DOF_BF(2,1)), m/s
         13     2.140867896E-002                                                 T               2         ED First time derivative of 1st flapwise bending-mode DOF of blade 3 (internal DOF index = DOF_BF(3,1)), m/s
         14    -9.313139017E-004                                                 T               2         ED First time derivative of 2nd flapwise bending-mode DOF of blade 1 (internal DOF index = DOF_BF(1,2)), m/s
         15     9.934508707E-004                                                 T               2         ED First time derivative of 2nd flapwise bending-mode DOF of blade 2 (internal DOF index = DOF_BF(2,2)), m/s
         16    -1.640703063E-003                                                 T               2         ED First time derivative of 2nd flapwise bending-mode DOF of blade 3 (internal DOF index = DOF_BF(3,2)), m/s

Order of continuous state derivatives:
   Row/Column Operating Point                                             Rotating Frame? Derivative Order Description
   ---------- ---------------                                             --------------- ---------------- -----------
          1    -1.161328331E-002                                                 F               2         First time derivative of ED 1st tower fore-aft bending mode DOF (internal DOF index = DOF_TFA1), m/s
          2    -8.405158878E-004                                                 F               2         First time derivative of ED 1st tower side-to-side bending mode DOF (internal DOF index = DOF_TSS1), m/s
          3     1.538473833E-002                                                 T               2         First time derivative of ED 1st flapwise bending-mode DOF of blade 1 (internal DOF index = DOF_BF(1,1)), m/s
          4    -2.879718505E-002                                                 T               2         First time derivative of ED 1st flapwise bending-mode DOF of blade 2 (internal DOF index = DOF_BF(2,1)), m/s
          5     2.140867896E-002                                                 T               2         First time derivative of ED 1st flapwise bending-mode DOF of blade 3 (internal DOF index = DOF_BF(3,1)), m/s
          6    -9.313139017E-004                                                 T               2         First time derivative of ED 2nd flapwise bending-mode DOF of blade 1 (internal DOF index = DOF_BF(1,2)), m/s
          7     9.934508707E-004                                                 T               2         First time derivative of ED 2nd flapwise bending-mode DOF of blade 2 (internal DOF index = DOF_BF(2,2)), m/s
          8    -1.640703063E-003                                                 T               2         First time derivative of ED 2nd flapwise bending-mode DOF of blade 3 (internal DOF index = DOF_BF(3,2)), m/s
          9     3.661576426E-003                                                 F               2         First time derivative of ED First time derivative of 1st tower fore-aft bending mode DOF (internal DOF index = DOF_TFA1), m/s/s
         10    -9.537810460E-003                                                 F               2         First time derivative of ED First time derivative of 1st tower side-to-side bending mode DOF (internal DOF index = DOF_TSS1), m/s/s
         11    -1.676990539E-001                                                 T               2         First time derivative of ED First time derivative of 1st flapwise bending-mode DOF of blade 1 (internal DOF index = DOF_BF(1,1)), m/s/s
         12    -3.613187745E-002                                                 T               2         First time derivative of ED First time derivative of 1st flapwise bending-mode DOF of blade 2 (internal DOF index = DOF_BF(2,1)), m/s/s
         13     5.590805784E-002                                                 T               2         First time derivative of ED First time derivative of 1st flapwise bending-mode DOF of blade 3 (internal DOF index = DOF_BF(3,1)), m/s/s
         14     6.541763898E-003                                                 T               2         First time derivative of ED First time derivative of 2nd flapwise bending-mode DOF of blade 1 (internal DOF index = DOF_BF(1,2)), m/s/s
         15    -2.128181281E-003                                                 T               2         First time derivative of ED First time derivative of 2nd flapwise bending-mode DOF of blade 2 (internal DOF index = DOF_BF(2,2)), m/s/s
         16    -3.736519953E-003                                                 T               2         First time derivative of ED First time derivative of 2nd flapwise bending-mode DOF of blade 3 (internal DOF index = DOF_BF(3,2)), m/s/s

Order of inputs:
     Column   Operating Point                                             Rotating Frame? Derivative Order Description
   ---------- ---------------                                             --------------- ---------------- -----------
          1     0.000000000E+000                                                 T               0         ED Blade 1 pitch command, rad
          2     0.000000000E+000                                                 T               0         ED Blade 2 pitch command, rad
          3     0.000000000E+000                                                 T               0         ED Blade 3 pitch command, rad
          4     0.000000000E+000                                                 F               0         ED Yaw moment, Nm
          5     0.000000000E+000                                                 F               0         ED Generator torque, Nm
          6     0.000000000E+000                                                 F               0         ED Extended input: collective blade-pitch command, rad

Order of outputs:
        Row   Operating Point                                             Rotating Frame? Derivative Order Description
   ---------- ---------------                                             --------------- ---------------- -----------
          1     6.683652401E-001                                                 T               0         ED OoPDefl1, (m)
          2    -9.765284508E-002                                                 T               0         ED IPDefl1, (m)
          3     0.000000000E+000                                                 T               0         ED TwstDefl1, (deg)
          4     0.000000000E+000                                                 T               0         ED BldPitch1, (deg)
          5     2.505377197E+002                                                 F               0         ED Azimuth, (deg)
          6     1.950000000E+001                                                 F               0         ED RotSpeed, (rpm)
          7     1.891500000E+003                                                 F               0         ED GenSpeed, (rpm)
          8    -5.618170835E-004                                                 F               0         ED TTDspFA, (m)
          9    -2.333049197E-003                                                 F               0         ED TTDspSS, (m)
         10     0.000000000E+000                                                 F               0         ED TTDspTwst, (deg)
         11    -4.529990005E+001                                                 T               0         ED Spn2MLxb1, (kN-m)
         12     3.153557434E+002                                                 T               0         ED Spn2MLyb1, (kN-m)
         13     7.122434998E+001                                                 T               0         ED RootFxb1, (kN)
         14    -1.347191930E+000                                                 T               0         ED RootFyb1, (kN)
         15     1.616755737E+003                                                 T               0         ED RootFzb1, (kN)
         16     1.623297095E+000                                                 T               0         ED RootMxb1, (kN-m)
         17     1.956090332E+003                                                 T               0         ED RootMyb1, (kN-m)
         18     1.950889111E+000                                                 T               0         ED RootMzb1, (kN-m)
         19     9.930150986E+000                                                 F               0         ED RotTorq, (kN-m)
         20     2.538471794E+001                                                 F               0         ED LSSGagMya, (kN-m)
         21     1.052012062E+001                                                 F               0         ED LSSGagMza, (kN-m)
         22    -9.481349587E-001                                                 F               0         ED YawBrFxp, (kN)
         23    -3.475850105E+000                                                 F               0         ED YawBrFyp, (kN)
         24    -7.222340908E-003                                                 F               0         ED YawBrFzp, (kN)
         25     1.411491585E+001                                                 F               0         ED YawBrMxp, (kN-m)
         26    -3.972322047E-001                                                 F               0         ED YawBrMyp, (kN-m)
         27    -2.931700134E+001                                                 F               0         ED YawBrMzp, (kN-m)
         28    -1.288972855E+000                                                 F               0         ED TwrBsFxt, (kN)
         29    -4.392243385E+000                                                 F               0         ED TwrBsFyt, (kN)
         30    -7.282409817E-003                                                 F               0         ED TwrBsFzt, (kN)
         31     3.757869568E+002                                                 F               0         ED TwrBsMxt, (kN-m)
         32    -1.048561325E+002                                                 F               0         ED TwrBsMyt, (kN-m)
         33    -2.931729507E+001                                                 F               0         ED TwrBsMzt, (kN-m)


Linearized state matrices:

A: 16 x 16
     0.000000000E+000   0.000000000E+000   0.000000000E+000   0.000000000E+000   0.000000000E+000   0.000000000E+000   0.000000000E+000   0.000000000E+000   1.000000000E+000   0.000000000E+000   0.000000000E+000   0.000000000E+000   0.000000000E+000   0.000000000E+000   0.000000000E+000   0.000000000E+000
     0.000000000E+000   0.000000000E+000   0.000000000E+000   0.000000000E+000   0.000000000E+000   0.000000000E+000   0.000000000E+000   0.000000000E+000   0.000000000E+000   1.000000000E+000   0.000000000E+000   0.000000000E+000   0.000000000E+000   0.000000000E+000   0.000000000E+000   0.000000000E+000
     0.000000000E+000   0.000000000E+000   0.000000000E+000   0.000000000E+000   0.000000000E+000   0.000000000E+000   0.000000000E+000   0.000000000E+000   0.000000000E+000   0.000000000E+000   1.000000000E+000   0.000000000E+000   0.000000000E+000   0.000000000E+000   0.000000000E+000   0.000000000E+000
     0.000000000E+000   0.000000000E+000   0.000000000E+000   0.000000000E+000   0.000000000E+000   0.000000000E+000   0.000000000E+000   0.000000000E+000   0.000000000E+000   0.000000000E+000   0.000000000E+000   1.000000000E+000   0.000000000E+000   0.000000000E+000   0.000000000E+000   0.000000000E+000
     0.000000000E+000   0.000000000E+000   0.000000000E+000   0.000000000E+000   0.000000000E+000   0.000000000E+000   0.000000000E+000   0.000000000E+000   0.000000000E+000   0.000000000E+000   0.000000000E+000   0.000000000E+000   1.000000000E+000   0.000000000E+000   0.000000000E+000   0.000000000E+000
     0.000000000E+000   0.000000000E+000   0.000000000E+000   0.000000000E+000   0.000000000E+000   0.000000000E+000   0.000000000E+000   0.000000000E+000   0.000000000E+000   0.000000000E+000   0.000000000E+000   0.000000000E+000   0.000000000E+000   1.000000000E+000   0.000000000E+000   0.000000000E+000
     0.000000000E+000   0.000000000E+000   0.000000000E+000   0.000000000E+000   0.000000000E+000   0.000000000E+000   0.000000000E+000   0.000000000E+000   0.000000000E+000   0.000000000E+000   0.000000000E+000   0.000000000E+000   0.000000000E+000   0.000000000E+000   1.000000000E+000   0.000000000E+000
     0.000000000E+000   0.000000000E+000   0.000000000E+000   0.000000000E+000   0.000000000E+000   0.000000000E+000   0.000000000E+000   0.000000000E+000   0.000000000E+000   0.000000000E+000   0.000000000E+000   0.000000000E+000   0.000000000E+000   0.000000000E+000   0.000000000E+000   1.000000000E+000
    -4.706987427E+000  -6.738401234E-002   1.030595341E-001   2.127619689E-001   6.731150419E-002  -5.170884490E-001  -7.858350110E-001  -3.679483436E-001  -1.210652727E-002  -8.089749231E-003  -2.114817374E-004   1.294416329E-003  -1.943554968E-004   2.049399008E-004  -1.444418438E-003   2.720742586E-004
    -7.010269154E-002  -4.112103081E+000  -1.655320074E-003   4.210000978E-002   1.146649362E-002  -3.777891575E-002  -3.546932655E-001  -4.990831195E-002  -2.221652207E-003  -1.374269060E-002  -3.652715204E-003  -4.477330975E-004   2.564717949E-003   4.392984898E-003  -1.887394341E-004  -3.503020483E-003
     8.895208194E+000  -3.645282503E-002  -2.527029056E+001  -4.005385501E-001  -1.267924134E-001   3.523555225E+000   1.471426864E+000   6.936022457E-001  -7.307884917E+000   5.467121430E-001  -4.070246999E-002  -2.464950726E-003   4.699083020E-004  -6.714281620E-003   2.723092705E-003  -6.543274920E-004
     2.037148551E+001   3.738252984E+000  -4.433535018E-001  -2.602965892E+001  -3.000937936E-001   2.263128144E+000   6.235591373E+000   1.629704993E+000   1.484871300E+000  -4.254059884E-001   3.976631638E-003  -4.615130089E-002  -1.312641609E-003  -4.569361182E-003  -1.512752686E-004   1.764330802E-003
     5.332406539E+000   1.226540337E+000  -1.158563982E-001  -2.519013383E-001  -2.515553711E+001   5.941743659E-001   9.860659241E-001   2.975213464E+000   5.914645666E+000   7.898001810E-001   1.259519923E-003  -1.335825335E-003  -4.146121284E-002  -1.459020600E-003   1.683002324E-003  -5.945590834E-003
    -1.020995815E+001  -7.348070198E-001  -2.835701229E+000   4.670877727E-001   1.475074249E-001  -1.741432223E+002  -1.753692458E+000  -8.044997250E-001   3.931654545E+000  -4.276023991E-001   2.499034974E-002   2.740973194E-003  -5.414422164E-005  -1.144941237E-001  -3.157117427E-003   8.828516983E-005
    -1.587088968E+001  -6.633992656E+000   3.425170206E-001  -2.280001138E+000   2.432663957E-001  -1.790366411E+000  -1.762025493E+002  -1.309873105E+000  -8.137982032E-001   8.736150491E-002  -6.401488869E-003   2.976437260E-002   3.346717248E-003   7.533411453E-003  -1.206787237E-001  -4.548968025E-003
    -7.226382083E+000  -1.017652106E+000   1.575117146E-001   3.352903970E-001  -2.954141153E+000  -8.005357439E-001  -1.282655884E+000  -1.735969884E+002  -3.208008365E+000  -5.525105967E-001  -1.135631077E-003   1.883460324E-003   2.646423593E-002   1.290102154E-003  -2.254680680E-003  -1.159460202E-001
B: 16 x 6
     0.000000000E+000   0.000000000E+000   0.000000000E+000   0.000000000E+000   0.000000000E+000   0.000000000E+000
     0.000000000E+000   0.000000000E+000   0.000000000E+000   0.000000000E+000   0.000000000E+000   0.000000000E+000
     0.000000000E+000   0.000000000E+000   0.000000000E+000   0.000000000E+000   0.000000000E+000   0.000000000E+000
     0.000000000E+000   0.000000000E+000   0.000000000E+000   0.000000000E+000   0.000000000E+000   0.000000000E+000
     0.000000000E+000   0.000000000E+000   0.000000000E+000   0.000000000E+000   0.000000000E+000   0.000000000E+000
     0.000000000E+000   0.000000000E+000   0.000000000E+000   0.000000000E+000   0.000000000E+000   0.000000000E+000
     0.000000000E+000   0.000000000E+000   0.000000000E+000   0.000000000E+000   0.000000000E+000   0.000000000E+000
     0.000000000E+000   0.000000000E+000   0.000000000E+000   0.000000000E+000   0.000000000E+000   0.000000000E+000
     2.567640272E-002   4.330043073E-002   1.085215223E-002   0.000000000E+000   0.000000000E+000   7.982898567E-002
    -4.365425469E-003   2.985359726E-002  -7.589325050E-003   0.000000000E+000   0.000000000E+000   1.789884674E-002
    -2.200968941E+000  -8.066538187E-002  -2.081896923E-002   0.000000000E+000   0.000000000E+000  -2.302453292E+000
    -1.071418311E-001  -2.326598304E+000  -4.046511360E-002   0.000000000E+000   0.000000000E+000  -2.474205249E+000
    -2.775987720E-002  -5.721462185E-002  -2.163204404E+000   0.000000000E+000   0.000000000E+000  -2.248178903E+000
     4.862565665E+000   9.810589311E-002   2.243091710E-002   0.000000000E+000   0.000000000E+000   4.983102475E+000
     7.917378515E-002   4.950245257E+000   2.450949841E-002   0.000000000E+000   0.000000000E+000   5.053928541E+000
     3.836431272E-002   7.296669895E-002   4.797958306E+000   0.000000000E+000   0.000000000E+000   4.909289317E+000
C: 33 x 16
     0.000000000E+000   0.000000000E+000   9.910331000E-001   0.000000000E+000   0.000000000E+000   1.012657451E+000   0.000000000E+000   0.000000000E+000   0.000000000E+000   0.000000000E+000   0.000000000E+000   0.000000000E+000   0.000000000E+000   0.000000000E+000   0.000000000E+000   0.000000000E+000
     0.000000000E+000   0.000000000E+000  -1.265685071E-001   0.000000000E+000   0.000000000E+000   4.159161788E-002   0.000000000E+000   0.000000000E+000   0.000000000E+000   0.000000000E+000   0.000000000E+000   0.000000000E+000   0.000000000E+000   0.000000000E+000   0.000000000E+000   0.000000000E+000
     0.000000000E+000   0.000000000E+000   0.000000000E+000   0.000000000E+000   0.000000000E+000   0.000000000E+000   0.000000000E+000   0.000000000E+000   0.000000000E+000   0.000000000E+000   0.000000000E+000   0.000000000E+000   0.000000000E+000   0.000000000E+000   0.000000000E+000   0.000000000E+000
     0.000000000E+000   0.000000000E+000   0.000000000E+000   0.000000000E+000   0.000000000E+000   0.000000000E+000   0.000000000E+000   0.000000000E+000   0.000000000E+000   0.000000000E+000   0.000000000E+000   0.000000000E+000   0.000000000E+000   0.000000000E+000   0.000000000E+000   0.000000000E+000
     0.000000000E+000   0.000000000E+000   0.000000000E+000   0.000000000E+000   0.000000000E+000   0.000000000E+000   0.000000000E+000   0.000000000E+000   0.000000000E+000   0.000000000E+000   0.000000000E+000   0.000000000E+000   0.000000000E+000   0.000000000E+000   0.000000000E+000   0.000000000E+000
     0.000000000E+000   0.000000000E+000   0.000000000E+000   0.000000000E+000   0.000000000E+000   0.000000000E+000   0.000000000E+000   0.000000000E+000   0.000000000E+000   0.000000000E+000   0.000000000E+000   0.000000000E+000   0.000000000E+000   0.000000000E+000   0.000000000E+000   0.000000000E+000
     0.000000000E+000   0.000000000E+000   0.000000000E+000   0.000000000E+000   0.000000000E+000   0.000000000E+000   0.000000000E+000   0.000000000E+000   0.000000000E+000   0.000000000E+000   0.000000000E+000   0.000000000E+000   0.000000000E+000   0.000000000E+000   0.000000000E+000   0.000000000E+000
     1.000000005E+000   0.000000000E+000   0.000000000E+000   0.000000000E+000   0.000000000E+000   0.000000000E+000   0.000000000E+000   0.000000000E+000   0.000000000E+000   0.000000000E+000   0.000000000E+000   0.000000000E+000   0.000000000E+000   0.000000000E+000   0.000000000E+000   0.000000000E+000
     0.000000000E+000  -1.000000066E+000   0.000000000E+000   0.000000000E+000   0.000000000E+000   0.000000000E+000   0.000000000E+000   0.000000000E+000   0.000000000E+000   0.000000000E+000   0.000000000E+000   0.000000000E+000   0.000000000E+000   0.000000000E+000   0.000000000E+000   0.000000000E+000
     0.000000000E+000   0.000000000E+000   0.000000000E+000   0.000000000E+000   0.000000000E+000   0.000000000E+000   0.000000000E+000   0.000000000E+000   0.000000000E+000   0.000000000E+000   0.000000000E+000   0.000000000E+000   0.000000000E+000   0.000000000E+000   0.000000000E+000   0.000000000E+000
    -1.483092956E+001   1.471928871E+002   2.541954298E+001  -7.255771038E-001  -1.630271754E-001  -6.481367966E+002   9.823833318E+000   4.290469399E-001   4.328019616E+001  -3.261275039E+000  -3.170122909E+000   2.143013500E-002  -9.265068314E-002  -1.886242811E-001   6.841295169E-003   1.246537289E-001
    -2.318347136E+001  -9.605928315E-001   4.886440031E+002   1.053879309E+000   3.332154987E-001   4.807202196E+002  -3.922816419E+000  -1.819606819E+000   5.832420267E+000  -7.021060332E-001   1.141661122E+000   6.397055223E-003  -5.686271309E-004   3.177204094E-001  -7.107839136E-003   1.421567827E-003
     4.187785538E+001  -5.627327460E+000   4.923064416E+001  -1.834000193E+000  -5.830027356E-001  -2.138100206E+002   6.471687534E+000   3.206701626E+000  -6.928119857E+000   8.045276845E-001   1.814453636E-001  -1.220771372E-002   5.615192918E-003  -2.075489028E-001   1.261641447E-002  -7.640927071E-003
    -7.596425810E+000  -7.833260284E+000  -9.058947643E+000   4.165463054E-001   1.282723409E-001   8.356985224E+001  -1.913463613E+000  -6.771382907E-001  -4.557671866E+000   3.208746517E-001   2.505738192E-001   1.132256562E-003   4.316624025E-003  -1.754136957E-001  -4.136984497E-003  -5.813990293E-003
    -9.754633076E+000  -7.148008289E+001  -1.799704869E-001   1.116499372E+000   3.215586425E-001  -2.573037767E+000  -7.579799655E+000  -1.529606982E+000   9.880383410E-001   3.267113448E+001   1.423842336E+000  -5.117644178E-003   4.435291621E-002  -1.848038175E+000  -5.686271309E-003  -5.970584874E-002
     4.387066447E+001   5.237312424E+002   3.168425202E+002  -6.936695697E+000  -1.958899087E+000  -2.857482117E+003   5.096642735E+001   9.082755017E+000   1.730959901E+002  -1.275793787E+001  -1.023404337E+001   4.737791259E-002  -3.248615665E-001   4.316896122E+000   3.433974783E-002   4.433153716E-001
     3.084515978E+002  -1.406607311E+002   1.807147061E+003  -1.256864979E+001  -4.041801646E+000  -4.742003409E+003   3.939733076E+001   2.254322260E+001  -9.913916832E+001   1.022569782E+001   6.530966912E+000  -1.014999429E-001   1.029215107E-001  -4.915781547E+000   8.813720529E-002  -1.393136471E-001
     2.572334274E-001  -3.865694161E+000   2.338757836E+000   2.513176435E-002   6.220469844E-003   1.216256228E+001  -2.812927338E-001  -1.920227167E-002  -1.183456996E+000   8.779834074E-002   8.148637800E-002  -6.705246685E-004   2.460256351E-003  -1.573442359E-002  -7.829729049E-004  -2.751511166E-003
    -1.040166096E+003   3.092756118E+003   3.559944173E+002   3.481217036E+002   3.377914189E+002  -3.082031905E+003  -2.905043156E+003  -3.038282444E+003  -1.157857431E+000  -1.807930833E+001  -8.368047909E+000  -1.044925431E+001  -1.308364716E+001   1.876225200E+000   4.944212903E+000   7.797854832E+000
    -2.149160540E+002  -8.458314297E+002   1.896829795E+003  -9.585009923E+002  -9.113951389E+002  -5.152231634E+003   2.697502783E+003   2.292701926E+003  -1.767105949E+002   4.273078696E-001   9.023059719E+000  -4.150791475E+000  -5.150304699E+000  -8.154823841E+000   3.945916897E+000   4.297088574E+000
     3.557495359E+002  -7.280881980E+002   2.606279798E+001   1.612969710E+003  -1.659678590E+003  -2.461669923E+002  -4.297889272E+003   4.596102572E+003  -3.569555165E+001  -1.908735382E+001  -1.526899340E+000   8.729559271E+000  -7.555344246E+000   1.323879463E+000  -8.054247917E+000   6.908419825E+000
     1.589394529E+003   3.642787113E+000   1.581793848E+001  -2.171861109E+001   2.653169991E+001  -4.945646688E+001   4.691897386E+001  -8.706260552E+001   4.707114419E+000  -1.040015224E-001   1.094457296E-001  -1.877885547E-001   1.295431448E-001  -1.053084675E-001   1.909051756E-001  -1.385459449E-001
    -1.711623214E+001  -1.491815139E+003   4.033296673E+000   5.499271280E+000   8.611388114E+000  -5.083888051E+001  -4.234243059E+001  -6.438872084E+001   3.996206525E-001  -5.680764335E+000  -1.633692401E-003  -1.840874806E-001  -3.727650705E-001  -1.649518450E-001   1.057013422E-001   3.153381727E-001
     1.977169824E+001   2.710198253E+000   3.246443887E+000  -5.138372969E+000  -1.284908514E+001  -5.464605571E+001   2.762087963E+001   9.131272127E+001   7.120173123E+000   3.928560070E-001  -7.456116313E-001   1.490767639E+000  -7.839824401E-001   8.198034332E-001  -1.912486806E+000   1.123926977E+000
    -9.990800437E+002   6.008975733E+003   1.888026701E+002   3.715035090E+002   4.417424646E+002  -2.530768159E+003  -2.938932445E+003  -3.210789700E+003   1.341563013E+001  -6.455511303E+000  -9.468885601E+000  -9.964597409E+000  -1.125033665E+001   3.397391623E+000   4.576271168E+000   6.088997032E+000
     3.652785731E+003  -3.935114693E+002  -5.540523646E+002   1.792261540E+003  -1.236476995E+003   1.164835698E+003  -4.821770423E+003   3.629241339E+003   5.727136330E+001  -1.794167728E+001  -6.525918125E+000   1.390909718E+001  -7.559993772E+000   6.283637988E+000  -1.451410895E+001   8.272418320E+000
     1.403026608E+002   2.740801516E+002  -1.835860172E+003   3.698763469E+002   1.365080692E+003   5.300088548E+003  -1.163670812E+003  -3.276920325E+003   1.758833935E+002   8.025503603E+000  -1.177315820E+001   1.925344811E+000   1.282659327E+001   1.302627024E+001  -2.025600882E+000  -1.233805372E+001
     2.037652179E+003   1.005990687E+001   6.003291485E+000  -4.198040835E+001   2.012159292E+001  -2.122883877E-001   1.217557074E+002  -5.202294655E+001   5.859976884E+000   6.664054291E-001   1.295931218E-001  -3.110745798E-001   1.480598987E-001  -1.248369778E-001   3.284737926E-001  -1.644659575E-001
    -2.384845578E+001  -1.886659711E+003   3.874194357E+000   9.541970847E+000   9.713027659E+000  -5.446375075E+001  -7.640147430E+001  -6.918537389E+001   1.859433267E-001  -7.000367042E+000  -3.523311436E-001  -2.271498798E-001  -1.264628960E-001   2.568484308E-001   8.767075335E-002  -2.105697344E-002
     1.981151762E+001   2.544979161E+000   3.246739307E+000  -5.138355200E+000  -1.284840212E+001  -5.464883221E+001   2.761890832E+001   9.130877309E+001   7.095467779E+000   3.907933907E-001  -7.456192666E-001   1.490754867E+000  -7.839928520E-001   8.198049082E-001  -1.912479344E+000   1.123932269E+000