
Linearized model: Predictions were generated on 17-Jan-2026 at 06:32:31 using OpenFAST, compiled as a 64-bit application using single precision at commit v3.5.1
 linked with  NWTC Subroutine Library; ElastoDyn

Description from the FAST input file: FAST Certification Test #18: NREL 5.0 MW Baseline Wind Turbine (Onshore)

Simulation information:
   Simulation time:                    34.1063 s
   Rotor Speed:                         2.0420 rad/s
   Azimuth:                             0.5311 rad
   Wind Speed:                          0.0000 m/s
   Number of continuous states:        16
   Number of discrete states:           0
   Number of constraint states:         0
   Number of inputs:                    6
   Number of outputs:                  33
   Jacobians included in this file?    No

Order of continuous states:
   Row/Column Operating Point                                             Rotating Frame? Derivative Order Description
   ---------- ---------------                                             --------------- ---------------- -----------
          1    -3.434106009E-003                                                 F               2         ED 1st tower fore-aft bending mode DOF (internal DOF index = DOF_TFA1), m
          2    -2.086680382E-003                                                 F               2         ED 1st tower side-to-side bending mode DOF (internal DOF index = DOF_TSS1), m
          3     7.325598598E-001                                                 T               2         ED 1st flapwise bending-mode DOF of blade 1 (internal DOF index = DOF_BF(1,1)), m
          4     7.422220111E-001                                                 T               2         ED 1st flapwise bending-mode DOF of blade 2 (internal DOF index = DOF_BF(2,1)), m
          5     7.281573415E-001                                                 T               2         ED 1st flapwise bending-mode DOF of blade 3 (internal DOF index = DOF_BF(3,1)), m
          6    -7.119377702E-002                                                 T               2         ED 2nd flapwise bending-mode DOF of blade 1 (internal DOF index = DOF_BF(1,2)), m
          7    -7.156026363E-002                                                 T               2         ED 2nd flapwise bending-mode DOF of blade 2 (internal DOF index = DOF_BF(2,2)), m
          8    -7.075775415E-002                                                 T               2         ED 2nd flapwise bending-mode DOF of blade 3 (internal DOF index = DOF_BF(3,2)), m
          9     1.003744826E-002                                                 F               2         ED First time derivative of 1st tower fore-aft bending mode DOF (internal DOF index = DOF_TFA1), m/s
         10    -2.359451959E-003                                                 F               2         ED First time derivative of 1st tower side-to-side bending mode DOF (internal DOF index = DOF_TSS1), m/s
         11     2.191818506E-002                                                 T               2         ED First time derivative of 1st flapwise bending-mode DOF of blade 1 (internal DOF index = DOF_BF(1,1)), m/s
         12    -1.590587571E-002                                                 T               2         ED First time derivative of 1st flapwise bending-mode DOF of blade 2 (internal DOF index = DOF_BF(2,1)), m/s
         13    -3.413570672E-002                                                 T               2         ED First time derivative of 1st flapwise bending-mode DOF of blade 3 (internal DOF index = DOF_BF(3,1)), m/s
         14    -3.946635872E-003                                                 T               2         ED First time derivative of 2nd flapwise bending-mode DOF of blade 1 (internal DOF index = DOF_BF(1,2)), m/s
         15    -1.590193948E-003                                                 T               2         ED First time derivative of 2nd flapwise bending-mode DOF of blade 2 (internal DOF index = DOF_BF(2,2)), m/s
         16    -1.282061799E-003                                                 T               2         ED First time derivative of 2nd flapwise bending-mode DOF of blade 3 (internal DOF index = DOF_BF(3,2)), m/s

Order of continuous state derivatives:
   Row/Column Operating Point                                             Rotating Frame? Derivative Order Description
   ---------- ---------------                                             --------------- ---------------- -----------
          1     1.003744826E-002                                                 F               2         First time derivative of ED 1st tower fore-aft bending mode DOF (internal DOF index = DOF_TFA1), m/s
          2    -2.359451959E-003                                                 F               2         First time derivative of ED 1st tower side-to-side bending mode DOF (internal DOF index = DOF_TSS1), m/s
          3     2.191818506E-002                                                 T               2         First time derivative of ED 1st flapwise bending-mode DOF of blade 1 (internal DOF index = DOF_BF(1,1)), m/s
          4    -1.590587571E-002                                                 T               2         First time derivative of ED 1st flapwise bending-mode DOF of blade 2 (internal DOF index = DOF_BF(2,1)), m/s
          5    -3.413570672E-002                                                 T               2         First time derivative of ED 1st flapwise bending-mode DOF of blade 3 (internal DOF index = DOF_BF(3,1)), m/s
          6    -3.946635872E-003                                                 T               2         First time derivative of ED 2nd flapwise bending-mode DOF of blade 1 (internal DOF index = DOF_BF(1,2)), m/s
          7    -1.590193948E-003                                                 T               2         First time derivative of ED 2nd flapwise bending-mode DOF of blade 2 (internal DOF index = DOF_BF(2,2)), m/s
          8    -1.282061799E-003                                                 T               2         First time derivative of ED 2nd flapwise bending-mode DOF of blade 3 (internal DOF index = DOF_BF(3,2)), m/s
          9     1.329222508E-002                                                 F               2         First time derivative of ED First time derivative of 1st tower fore-aft bending mode DOF (internal DOF index = DOF_TFA1), m/s/s
         10     8.565724827E-003                                                 F               2         First time derivative of ED First time derivative of 1st tower side-to-side bending mode DOF (internal DOF index = DOF_TSS1), m/s/s
         11     1.063256413E-001                                                 T               2         First time derivative of ED First time derivative of 1st flapwise bending-mode DOF of blade 1 (internal DOF index = DOF_BF(1,1)), m/s/s
         12    -7.114693522E-002                                                 T               2         First time derivative of ED First time derivative of 1st flapwise bending-mode DOF of blade 2 (internal DOF index = DOF_BF(2,1)), m/s/s
         13     1.463178843E-001                                                 T               2         First time derivative of ED First time derivative of 1st flapwise bending-mode DOF of blade 3 (internal DOF index = DOF_BF(3,1)), m/s/s
         14     3.739995882E-004                                                 T               2         First time derivative of ED First time derivative of 2nd flapwise bending-mode DOF of blade 1 (internal DOF index = DOF_BF(1,2)), m/s/s
         15     5.054824054E-003                                                 T               2         First time derivative of ED First time derivative of 2nd flapwise bending-mode DOF of blade 2 (internal DOF index = DOF_BF(2,2)), m/s/s
         16    -7.411043625E-003                                                 T               2         First time derivative of ED First time derivative of 2nd flapwise bending-mode DOF of blade 3 (internal DOF index = DOF_BF(3,2)), m/s/s

Order of inputs:
     Column   Operating Point                                             Rotating Frame? Derivative Order Description
   ---------- ---------------                                             --------------- ---------------- -----------
          1     0.000000000E+000                                                 T               0         ED Blade 1 pitch command, rad
          2     0.000000000E+000                                                 T               0         ED Blade 2 pitch command, rad
          3     0.000000000E+000                                                 T               0         ED Blade 3 pitch command, rad
          4     0.000000000E+000                                                 F               0         ED Yaw moment, Nm
          5     0.000000000E+000                                                 F               0         ED Generator torque, Nm
          6     0.000000000E+000                                                 F               0         ED Extended input: collective blade-pitch command, rad

Order of outputs:
        Row   Operating Point                                             Rotating Frame? Derivative Order Description
   ---------- ---------------                                             --------------- ---------------- -----------
          1     6.538960934E-001                                                 T               0         ED OoPDefl1, (m)
          2    -9.568008035E-002                                                 T               0         ED IPDefl1, (m)
          3     0.000000000E+000                                                 T               0         ED TwstDefl1, (deg)
          4     0.000000000E+000                                                 T               0         ED BldPitch1, (deg)
          5     3.043146896E+001                                                 F               0         ED Azimuth, (deg)
          6     1.950000000E+001                                                 F               0         ED RotSpeed, (rpm)
          7     1.891500000E+003                                                 F               0         ED GenSpeed, (rpm)
          8    -3.434106009E-003                                                 F               0         ED TTDspFA, (m)
          9     2.086680382E-003                                                 F               0         ED TTDspSS, (m)
         10     0.000000000E+000                                                 F               0         ED TTDspTwst, (deg)
         11    -4.656446457E+001                                                 T               0         ED Spn2MLxb1, (kN-m)
         12     3.083670959E+002                                                 T               0         ED Spn2MLyb1, (kN-m)
         13     7.015507507E+001                                                 T               0         ED RootFxb1, (kN)
         14    -1.031969547E+000                                                 T               0         ED RootFyb1, (kN)
         15     1.616787231E+003                                                 T               0         ED RootFzb1, (kN)
         16    -7.944631577E+000                                                 T               0         ED RootMxb1, (kN-m)
         17     1.923925049E+003                                                 T               0         ED RootMyb1, (kN-m)
         18     1.936074138E+000                                                 T               0         ED RootMzb1, (kN-m)
         19    -8.993685722E+000                                                 F               0         ED RotTorq, (kN-m)
         20    -5.343247890E+000                                                 F               0         ED LSSGagMya, (kN-m)
         21     2.621619797E+001                                                 F               0         ED LSSGagMza, (kN-m)
         22    -5.246434689E+000                                                 F               0         ED YawBrFxp, (kN)
         23     3.116655588E+000                                                 F               0         ED YawBrFyp, (kN)
         24    -2.018646896E-002                                                 F               0         ED YawBrFzp, (kN)
         25    -1.315421486E+001                                                 F               0         ED YawBrMxp, (kN-m)
         26    -2.863624573E+001                                                 F               0         ED YawBrMyp, (kN-m)
         27     2.162355232E+001                                                 F               0         ED YawBrMzp, (kN-m)
         28    -6.519080639E+000                                                 F               0         ED TwrBsFxt, (kN)
         29     3.937531948E+000                                                 F               0         ED TwrBsFyt, (kN)
         30    -2.061031014E-002                                                 F               0         ED TwrBsFzt, (kN)
         31    -3.373949280E+002                                                 F               0         ED TwrBsMxt, (kN-m)
         32    -5.682454834E+002                                                 F               0         ED TwrBsMyt, (kN-m)
         33     2.162413025E+001                                                 F               0         ED TwrBsMzt, (kN-m)


Linearized state matrices:

A: 16 x 16
     0.000000000E+000   0.000000000E+000   0.000000000E+000   0.000000000E+000   0.000000000E+000   0.000000000E+000   0.000000000E+000   0.000000000E+000   1.000000000E+000   0.000000000E+000   0.000000000E+000   0.000000000E+000   0.000000000E+000   0.000000000E+000   0.000000000E+000   0.000000000E+000
     0.000000000E+000   0.000000000E+000   0.000000000E+000   0.000000000E+000   0.000000000E+000   0.000000000E+000   0.000000000E+000   0.000000000E+000   0.000000000E+000   1.000000000E+000   0.000000000E+000   0.000000000E+000   0.000000000E+000   0.000000000E+000   0.000000000E+000   0.000000000E+000
     0.000000000E+000   0.000000000E+000   0.000000000E+000   0.000000000E+000   0.000000000E+000   0.000000000E+000   0.000000000E+000   0.000000000E+000   0.000000000E+000   0.000000000E+000   1.000000000E+000   0.000000000E+000   0.000000000E+000   0.000000000E+000   0.000000000E+000   0.000000000E+000
     0.000000000E+000   0.000000000E+000   0.000000000E+000   0.000000000E+000   0.000000000E+000   0.000000000E+000   0.000000000E+000   0.000000000E+000   0.000000000E+000   0.000000000E+000   0.000000000E+000   1.000000000E+000   0.000000000E+000   0.000000000E+000   0.000000000E+000   0.000000000E+000
     0.000000000E+000   0.000000000E+000   0.000000000E+000   0.000000000E+000   0.000000000E+000   0.000000000E+000   0.000000000E+000   0.000000000E+000   0.000000000E+000   0.000000000E+000   0.000000000E+000   0.000000000E+000   1.000000000E+000   0.000000000E+000   0.000000000E+000   0.000000000E+000
     0.000000000E+000   0.000000000E+000   0.000000000E+000   0.000000000E+000   0.000000000E+000   0.000000000E+000   0.000000000E+000   0.000000000E+000   0.000000000E+000   0.000000000E+000   0.000000000E+000   0.000000000E+000   0.000000000E+000   1.000000000E+000   0.000000000E+000   0.000000000E+000
     0.000000000E+000   0.000000000E+000   0.000000000E+000   0.000000000E+000   0.000000000E+000   0.000000000E+000   0.000000000E+000   0.000000000E+000   0.000000000E+000   0.000000000E+000   0.000000000E+000   0.000000000E+000   0.000000000E+000   0.000000000E+000   1.000000000E+000   0.000000000E+000
     0.000000000E+000   0.000000000E+000   0.000000000E+000   0.000000000E+000   0.000000000E+000   0.000000000E+000   0.000000000E+000   0.000000000E+000   0.000000000E+000   0.000000000E+000   0.000000000E+000   0.000000000E+000   0.000000000E+000   0.000000000E+000   0.000000000E+000   1.000000000E+000
    -4.706992839E+000  -6.741357875E-002   2.006629768E-001   4.937474839E-002   1.330930869E-001  -7.428813519E-001  -3.264346449E-001  -6.015652711E-001  -1.209889798E-002  -8.098312070E-003   1.241853980E-003  -4.592066518E-004   1.119280335E-004  -1.365502674E-003   5.588386621E-004  -1.609740143E-004
    -7.003950697E-002  -4.112134242E+000   4.323786115E-002   3.185333389E-003   5.424022996E-003  -3.446869456E-001   6.496023720E-003  -1.042958108E-001  -2.237826337E-003  -1.374256588E-002   7.653323402E-004   1.747150616E-003  -4.049829398E-003  -1.716264233E-003  -2.384888542E-003   4.796615394E-003
     1.914468970E+001   3.865145854E+000  -2.592688631E+001  -2.029579940E-001  -5.443265936E-001   5.858896546E+000   1.317772286E+000   2.529946086E+000   3.994562617E+000  -3.326816882E-001  -4.667965068E-002   3.363526394E-004   3.081991571E-003   4.013921711E-004  -1.834962624E-004  -3.535142078E-003
     3.447864707E+000   5.056921446E-001  -1.514833939E-001  -2.511224472E+001  -9.788632844E-002   5.813546010E-001   2.784879705E+000   4.513121919E-001   3.836324887E+000   9.508700284E-001  -9.928792286E-004  -4.080858702E-002   3.688257348E-004   1.189072142E-003  -6.655248286E-003  -4.160735656E-004
     1.200679199E+001   5.546423766E-001  -5.155979282E-001  -1.261722516E-001  -2.541620241E+001   1.926021606E+000   8.316026673E-001   4.089238693E+000  -7.740230031E+000   2.955395172E-001  -3.237305916E-003   1.007836421E-003  -4.085228094E-002   3.641174475E-003  -1.202390826E-003  -6.703633796E-003
    -1.500012133E+001  -6.462115152E+000  -2.358697618E+000   1.610682608E-001   4.293660682E-001  -1.758942217E+002  -1.023014338E+000  -2.061900812E+000  -2.168650880E+000   3.982523931E-002   3.142686338E-002   1.201597036E-003  -5.799084652E-003  -1.225889000E-001  -1.855315523E-003   6.778550060E-003
    -6.345609323E+000   3.620639335E-002   2.692897884E-001  -2.991552948E+000   1.793263302E-001  -9.912678334E-001  -1.734577226E+002  -8.080799212E-001  -2.086079749E+000  -6.394594405E-001   1.651256631E-003   2.541925821E-002   2.755324275E-004  -1.788759755E-003  -1.148081400E-001  -3.646502908E-004
    -1.196189157E+001  -1.962206148E+000   5.274756252E-001   1.265420850E-001  -2.718513391E+000  -2.033221969E+000  -8.246104768E-001  -1.745903286E+002   4.165859399E+000  -2.915348327E-001   3.481283350E-003  -4.027588682E-004   2.487652503E-002  -4.209025017E-003   3.774431822E-004  -1.138560021E-001
B: 16 x 6
     0.000000000E+000   0.000000000E+000   0.000000000E+000   0.000000000E+000   0.000000000E+000   0.000000000E+000
     0.000000000E+000   0.000000000E+000   0.000000000E+000   0.000000000E+000   0.000000000E+000   0.000000000E+000
     0.000000000E+000   0.000000000E+000   0.000000000E+000   0.000000000E+000   0.000000000E+000   0.000000000E+000
     0.000000000E+000   0.000000000E+000   0.000000000E+000   0.000000000E+000   0.000000000E+000   0.000000000E+000
     0.000000000E+000   0.000000000E+000   0.000000000E+000   0.000000000E+000   0.000000000E+000   0.000000000E+000
     0.000000000E+000   0.000000000E+000   0.000000000E+000   0.000000000E+000   0.000000000E+000   0.000000000E+000
     0.000000000E+000   0.000000000E+000   0.000000000E+000   0.000000000E+000   0.000000000E+000   0.000000000E+000
     0.000000000E+000   0.000000000E+000   0.000000000E+000   0.000000000E+000   0.000000000E+000   0.000000000E+000
     4.091845636E-002   8.122950795E-003   3.224041066E-002   0.000000000E+000   0.000000000E+000   8.128181781E-002
     2.700310310E-002  -1.409879562E-002   3.573186889E-003   0.000000000E+000   0.000000000E+000   1.647749437E-002
    -2.386770491E+000  -2.062317571E-002  -1.338299326E-001   0.000000000E+000   0.000000000E+000  -2.541223599E+000
    -3.291357618E-002  -2.163196220E+000  -2.396333805E-002   0.000000000E+000   0.000000000E+000  -2.220073134E+000
    -1.068340426E-001  -1.939433811E-002  -2.265584234E+000   0.000000000E+000   0.000000000E+000  -2.391812614E+000
     4.988127656E+000   4.280672740E-003   1.074421485E-001   0.000000000E+000   0.000000000E+000   5.099850477E+000
     5.435312977E-002   4.801442792E+000   4.337043009E-002   0.000000000E+000   0.000000000E+000   4.899166352E+000
     1.154845800E-001   1.444709517E-002   4.876360182E+000   0.000000000E+000   0.000000000E+000   5.006291857E+000
C: 33 x 16
     0.000000000E+000   0.000000000E+000   9.910331000E-001   0.000000000E+000   0.000000000E+000   1.012657451E+000   0.000000000E+000   0.000000000E+000   0.000000000E+000   0.000000000E+000   0.000000000E+000   0.000000000E+000   0.000000000E+000   0.000000000E+000   0.000000000E+000   0.000000000E+000
     0.000000000E+000   0.000000000E+000  -1.265685245E-001   0.000000000E+000   0.000000000E+000   4.159179141E-002   0.000000000E+000   0.000000000E+000   0.000000000E+000   0.000000000E+000   0.000000000E+000   0.000000000E+000   0.000000000E+000   0.000000000E+000   0.000000000E+000   0.000000000E+000
     0.000000000E+000   0.000000000E+000   0.000000000E+000   0.000000000E+000   0.000000000E+000   0.000000000E+000   0.000000000E+000   0.000000000E+000   0.000000000E+000   0.000000000E+000   0.000000000E+000   0.000000000E+000   0.000000000E+000   0.000000000E+000   0.000000000E+000   0.000000000E+000
     0.000000000E+000   0.000000000E+000   0.000000000E+000   0.000000000E+000   0.000000000E+000   0.000000000E+000   0.000000000E+000   0.000000000E+000   0.000000000E+000   0.000000000E+000   0.000000000E+000   0.000000000E+000   0.000000000E+000   0.000000000E+000   0.000000000E+000   0.000000000E+000
     0.000000000E+000   0.000000000E+000   0.000000000E+000   0.000000000E+000   0.000000000E+000   0.000000000E+000   0.000000000E+000   0.000000000E+000   0.000000000E+000   0.000000000E+000   0.000000000E+000   0.000000000E+000   0.000000000E+000   0.000000000E+000   0.000000000E+000   0.000000000E+000
     0.000000000E+000   0.000000000E+000   0.000000000E+000   0.000000000E+000   0.000000000E+000   0.000000000E+000   0.000000000E+000   0.000000000E+000   0.000000000E+000   0.000000000E+000   0.000000000E+000   0.000000000E+000   0.000000000E+000   0.000000000E+000   0.000000000E+000   0.000000000E+000
     0.000000000E+000   0.000000000E+000   0.000000000E+000   0.000000000E+000   0.000000000E+000   0.000000000E+000   0.000000000E+000   0.000000000E+000   0.000000000E+000   0.000000000E+000   0.000000000E+000   0.000000000E+000   0.000000000E+000   0.000000000E+000   0.000000000E+000   0.000000000E+000
     9.999999439E-001   0.000000000E+000   0.000000000E+000   0.000000000E+000   0.000000000E+000   0.000000000E+000   0.000000000E+000   0.000000000E+000   0.000000000E+000   0.000000000E+000   0.000000000E+000   0.000000000E+000   0.000000000E+000   0.000000000E+000   0.000000000E+000   0.000000000E+000
     0.000000000E+000  -9.999999439E-001   0.000000000E+000   0.000000000E+000   0.000000000E+000   0.000000000E+000   0.000000000E+000   0.000000000E+000   0.000000000E+000   0.000000000E+000   0.000000000E+000   0.000000000E+000   0.000000000E+000   0.000000000E+000   0.000000000E+000   0.000000000E+000
     0.000000000E+000   0.000000000E+000   0.000000000E+000   0.000000000E+000   0.000000000E+000   0.000000000E+000   0.000000000E+000   0.000000000E+000   0.000000000E+000   0.000000000E+000   0.000000000E+000   0.000000000E+000   0.000000000E+000   0.000000000E+000   0.000000000E+000   0.000000000E+000
    -1.472565732E+002   3.883245175E+002   2.743539724E+001   1.312320340E+000   3.836509483E+000  -6.391623057E+002  -1.129098016E+001  -9.765726733E+000  -2.346441357E+001   2.703008426E+000  -3.359946638E+000  -1.811965892E-001   3.882212888E-001   6.343746429E-002   2.445096663E-001  -4.615653039E-001
    -2.926439824E+001  -1.473524453E+001   4.895360369E+002   3.153748225E-001   8.392225668E-001   4.775110302E+002  -1.988773390E+000  -4.072081041E+000  -3.246055257E+000  -2.145739831E-002   1.153957684E+000   3.198527611E-003  -1.350489436E-002   2.999508116E-001  -5.686271309E-003   1.634803001E-002
     5.533563620E+001  -1.146249228E+001   4.791348161E+001  -5.731583784E-001  -1.554413341E+000  -2.106274856E+002   3.871817674E+000   6.787808679E+000   3.915476183E+000  -7.110881999E-002   1.730936526E-001   1.060844991E-002  -1.339827677E-002  -2.009741516E-001  -1.368259034E-002   1.581494208E-002
     2.070695076E+001  -9.403077931E+001  -9.179298352E+000  -1.610360087E-001  -5.063696790E-001   8.007797633E+001   1.695647215E+000   4.599771461E-001   2.450317737E+000  -4.803315023E-001   2.705444871E-001   4.242158305E-002  -9.345003739E-002  -2.214258481E-001  -5.790112396E-002   1.138670277E-001
     1.022769386E+001   3.848559041E+001  -1.124175838E+000  -1.299312994E-001  -3.215586425E-001   3.775684149E+000   5.999016231E-001   2.194900725E+000  -5.109854854E-001   3.319808826E+001   1.478430540E+000  -1.506861897E-002   3.724507707E-002  -1.913430295E+000   1.990194958E-002  -4.264703482E-002
    -6.657223946E+002   2.236769600E+003   3.237871989E+002   5.644171800E+000   1.694216984E+001  -2.788955085E+003  -5.237219134E+001  -3.298459387E+001  -9.362839851E+001   1.324903900E+001  -1.100784383E+001  -1.023334481E+000   2.229605860E+000   5.600577423E+000   1.386983747E+000  -2.645104593E+000
     5.416525987E+002  -4.107405126E+002   1.795032744E+003  -5.432663609E+000  -1.496541314E+001  -4.723292733E+003   3.872066448E+001   5.952104493E+001   5.487904272E+001  -2.742554910E+000   6.595790405E+000   2.314312423E-001  -4.253330939E-001  -5.060781465E+000  -3.155880577E-001   5.060781465E-001
     4.142443529E+000  -1.166898660E+001   2.321174264E+000  -3.633438518E-002  -1.073014389E-001   1.159078660E+001   3.228874753E-001   2.561543059E-001   6.281571488E-001  -7.716905358E-002   8.465436411E-002   5.398625944E-003  -1.168823063E-002  -1.520133565E-002  -5.400291844E-003   1.422123127E-002
    -1.040061304E+003   3.092748633E+003   3.447227704E+002   3.396497990E+002   3.573145918E+002  -2.902502104E+003  -3.071348467E+003  -3.051576236E+003  -1.224100911E+000  -1.806315290E+001  -1.144721602E+001  -1.252250881E+001  -8.041200590E+000   6.125824524E+000   7.097199590E+000   1.426698799E+000
     3.935149935E+002   1.779657903E+002   1.874377126E+003  -9.804527716E+002  -9.279365022E+002  -5.046294623E+003   2.830462022E+003   2.372757341E+003   1.123110948E+002  -1.260314169E+001   9.663742569E+000  -4.149113358E+000  -5.508505363E+000  -8.888486112E+000   4.094548476E+000   4.819792400E+000
    -1.336691435E+002   1.101723130E+003   2.934916516E+001   1.622801841E+003  -1.653681138E+003  -2.117010359E+002  -4.308434462E+003   4.584698400E+003   1.410164311E+002   1.437131084E+001  -1.064687667E+000   8.429555151E+000  -6.933568248E+000   9.878119440E-001  -7.472782252E+000   6.260007199E+000
     1.589395277E+003   3.657784681E+000  -1.790856942E+001   3.273177248E+001   5.809168624E+000   3.495075545E+001  -1.025764917E+002  -2.196830948E+001   4.705711930E+000  -1.043709062E-001  -1.721596381E-001   1.810244462E-001   4.169858253E-002   1.723095691E-001  -1.894572310E-001  -3.548366569E-002
    -1.709911379E+001  -1.491814141E+003   6.433298539E+000   8.166337430E+000   3.543491591E+000  -4.560949332E+001  -6.534967293E+001  -4.661008272E+001   3.986733146E-001  -5.680421266E+000  -2.581372819E-001  -3.254435209E-001   2.297664531E-002   1.994137588E-001   2.501459606E-001  -1.926279936E-001
     1.973587873E+001   2.634448257E+000  -8.274775290E+000  -1.071774182E+001   4.263451836E+000   5.594418037E+001   7.097709355E+001  -6.263050243E+001   7.350261226E+000   3.765132708E-001   1.398638660E+000  -1.174130064E+000  -2.549862325E-001  -1.742942804E+000   1.590164869E+000   1.785559558E-001
    -9.990094963E+002   6.008961262E+003   4.191918143E+002   3.991714126E+002   1.834572374E+002  -3.069716863E+003  -3.111752979E+003  -2.499126902E+003   1.334726586E+001  -6.437562563E+000  -1.038852004E+001  -1.108764710E+001  -9.313072883E+000   5.132592852E+000   5.843932066E+000   3.111389946E+000
     3.652743315E+003  -3.933670996E+002   1.551243813E+003  -1.623585410E+003   7.399603494E+001  -4.050262818E+003   4.588062895E+003  -5.658897244E+002   5.735677965E+001  -1.794718003E+001   1.291267809E+001  -1.111275110E+001  -1.925118248E+000  -1.328010895E+001   1.185774149E+001   1.445956600E+000
     1.402818895E+002   2.740314982E+002   9.747566204E+002   8.482746843E+002  -1.924025383E+003  -2.762297134E+003  -1.794519345E+003   5.415920383E+003   1.758424124E+002   8.055132278E+000   6.709382559E+000   9.416971721E+000  -1.313810321E+001  -6.920414303E+000  -8.709279718E+000   1.424166631E+001
     2.037651930E+003   1.007758563E+001  -3.701767287E+001   2.803037446E+001  -6.865888292E+000   1.056936346E+002  -7.149382235E+001   3.532421687E+001   5.857448701E+000   6.668167219E-001  -2.905140445E-001   2.248309473E-001   3.105459343E-002   3.024607672E-001  -2.427660245E-001  -2.015738755E-002
    -2.382346243E+001  -1.886661208E+003   1.058464087E+001   8.471726294E+000   4.064491202E+000  -7.870393107E+001  -6.472282260E+001  -5.662731590E+001   1.841188241E-001  -6.999961597E+000  -1.845900271E-001  -1.577323905E-001  -3.658987868E-001   3.453965580E-002   2.122356342E-002   2.679433234E-001
     1.996645220E+001   2.782970518E+000  -8.277024255E+000  -1.071620364E+001   4.263167800E+000   5.595186572E+001   7.097460581E+001  -6.262742607E+001   7.372006140E+000   3.718843995E-001   1.398632829E+000  -1.174106603E+000  -2.549761677E-001  -1.742931525E+000   1.590145087E+000   1.785523116E-001