
Linearized model: Predictions were generated on 17-Jan-2026 at 06:32:31 using OpenFAST, compiled as a 64-bit application using single precision at commit v3.5.1
 linked with  NWTC Subroutine Library; ElastoDyn

Description from the FAST input file: FAST Certification Test #18: NREL 5.0 MW Baseline Wind Turbine (Onshore)

Simulation information:
   Simulation time:                    36.6688 s
   Rotor Speed:                         2.0420 rad/s
   Azimuth:                             5.7638 rad
   Wind Speed:                          0.0000 m/s
   Number of continuous states:        16
   Number of discrete states:           0
   Number of constraint states:         0
   Number of inputs:                    6
   Number of outputs:                  33
   Jacobians included in this file?    No

Order of continuous states:
   Row/Column Operating Point                                             Rotating Frame? Derivative Order Description
   ---------- ---------------                                             --------------- ---------------- -----------
          1    -5.450441968E-003                                                 F               2         ED 1st tower fore-aft bending mode DOF (internal DOF index = DOF_TFA1), m
          2     5.375105320E-005                                                 F               2         ED 1st tower side-to-side bending mode DOF (internal DOF index = DOF_TSS1), m
          3     7.286304235E-001                                                 T               2         ED 1st flapwise bending-mode DOF of blade 1 (internal DOF index = DOF_BF(1,1)), m
          4     7.319096327E-001                                                 T               2         ED 1st flapwise bending-mode DOF of blade 2 (internal DOF index = DOF_BF(2,1)), m
          5     7.399815321E-001                                                 T               2         ED 1st flapwise bending-mode DOF of blade 3 (internal DOF index = DOF_BF(3,1)), m
          6    -7.086474448E-002                                                 T               2         ED 2nd flapwise bending-mode DOF of blade 1 (internal DOF index = DOF_BF(1,2)), m
          7    -7.109672576E-002                                                 T               2         ED 2nd flapwise bending-mode DOF of blade 2 (internal DOF index = DOF_BF(2,2)), m
          8    -7.133883238E-002                                                 T               2         ED 2nd flapwise bending-mode DOF of blade 3 (internal DOF index = DOF_BF(3,2)), m
          9    -6.167278043E-004                                                 F               2         ED First time derivative of 1st tower fore-aft bending mode DOF (internal DOF index = DOF_TFA1), m/s
         10    -4.769408144E-003                                                 F               2         ED First time derivative of 1st tower side-to-side bending mode DOF (internal DOF index = DOF_TSS1), m/s
         11    -2.678974904E-002                                                 T               2         ED First time derivative of 1st flapwise bending-mode DOF of blade 1 (internal DOF index = DOF_BF(1,1)), m/s
         12     2.545194328E-002                                                 T               2         ED First time derivative of 1st flapwise bending-mode DOF of blade 2 (internal DOF index = DOF_BF(2,1)), m/s
         13    -1.506662369E-002                                                 T               2         ED First time derivative of 1st flapwise bending-mode DOF of blade 3 (internal DOF index = DOF_BF(3,1)), m/s
         14     2.033886500E-003                                                 T               2         ED First time derivative of 2nd flapwise bending-mode DOF of blade 1 (internal DOF index = DOF_BF(1,2)), m/s
         15    -2.997781849E-004                                                 T               2         ED First time derivative of 2nd flapwise bending-mode DOF of blade 2 (internal DOF index = DOF_BF(2,2)), m/s
         16     1.757747261E-003                                                 T               2         ED First time derivative of 2nd flapwise bending-mode DOF of blade 3 (internal DOF index = DOF_BF(3,2)), m/s

Order of continuous state derivatives:
   Row/Column Operating Point                                             Rotating Frame? Derivative Order Description
   ---------- ---------------                                             --------------- ---------------- -----------
          1    -6.167278043E-004                                                 F               2         First time derivative of ED 1st tower fore-aft bending mode DOF (internal DOF index = DOF_TFA1), m/s
          2    -4.769408144E-003                                                 F               2         First time derivative of ED 1st tower side-to-side bending mode DOF (internal DOF index = DOF_TSS1), m/s
          3    -2.678974904E-002                                                 T               2         First time derivative of ED 1st flapwise bending-mode DOF of blade 1 (internal DOF index = DOF_BF(1,1)), m/s
          4     2.545194328E-002                                                 T               2         First time derivative of ED 1st flapwise bending-mode DOF of blade 2 (internal DOF index = DOF_BF(2,1)), m/s
          5    -1.506662369E-002                                                 T               2         First time derivative of ED 1st flapwise bending-mode DOF of blade 3 (internal DOF index = DOF_BF(3,1)), m/s
          6     2.033886500E-003                                                 T               2         First time derivative of ED 2nd flapwise bending-mode DOF of blade 1 (internal DOF index = DOF_BF(1,2)), m/s
          7    -2.997781849E-004                                                 T               2         First time derivative of ED 2nd flapwise bending-mode DOF of blade 2 (internal DOF index = DOF_BF(2,2)), m/s
          8     1.757747261E-003                                                 T               2         First time derivative of ED 2nd flapwise bending-mode DOF of blade 3 (internal DOF index = DOF_BF(3,2)), m/s
          9     2.231709845E-002                                                 F               2         First time derivative of ED First time derivative of 1st tower fore-aft bending mode DOF (internal DOF index = DOF_TFA1), m/s/s
         10    -2.362997911E-004                                                 F               2         First time derivative of ED First time derivative of 1st tower side-to-side bending mode DOF (internal DOF index = DOF_TSS1), m/s/s
         11     1.627012342E-001                                                 T               2         First time derivative of ED First time derivative of 1st flapwise bending-mode DOF of blade 1 (internal DOF index = DOF_BF(1,1)), m/s/s
         12     9.321098775E-002                                                 T               2         First time derivative of ED First time derivative of 1st flapwise bending-mode DOF of blade 2 (internal DOF index = DOF_BF(2,1)), m/s/s
         13    -6.029716507E-002                                                 T               2         First time derivative of ED First time derivative of 1st flapwise bending-mode DOF of blade 3 (internal DOF index = DOF_BF(3,1)), m/s/s
         14    -1.506385393E-003                                                 T               2         First time derivative of ED First time derivative of 2nd flapwise bending-mode DOF of blade 1 (internal DOF index = DOF_BF(1,2)), m/s/s
         15     2.674556337E-003                                                 T               2         First time derivative of ED First time derivative of 2nd flapwise bending-mode DOF of blade 2 (internal DOF index = DOF_BF(2,2)), m/s/s
         16     8.591677994E-003                                                 T               2         First time derivative of ED First time derivative of 2nd flapwise bending-mode DOF of blade 3 (internal DOF index = DOF_BF(3,2)), m/s/s

Order of inputs:
     Column   Operating Point                                             Rotating Frame? Derivative Order Description
   ---------- ---------------                                             --------------- ---------------- -----------
          1     0.000000000E+000                                                 T               0         ED Blade 1 pitch command, rad
          2     0.000000000E+000                                                 T               0         ED Blade 2 pitch command, rad
          3     0.000000000E+000                                                 T               0         ED Blade 3 pitch command, rad
          4     0.000000000E+000                                                 F               0         ED Yaw moment, Nm
          5     0.000000000E+000                                                 F               0         ED Generator torque, Nm
          6     0.000000000E+000                                                 F               0         ED Extended input: collective blade-pitch command, rad

Order of outputs:
        Row   Operating Point                                             Rotating Frame? Derivative Order Description
   ---------- ---------------                                             --------------- ---------------- -----------
          1     6.503351331E-001                                                 T               0         ED OoPDefl1, (m)
          2    -9.516905248E-002                                                 T               0         ED IPDefl1, (m)
          3     0.000000000E+000                                                 T               0         ED TwstDefl1, (deg)
          4     0.000000000E+000                                                 T               0         ED BldPitch1, (deg)
          5     3.302439575E+002                                                 F               0         ED Azimuth, (deg)
          6     1.950000000E+001                                                 F               0         ED RotSpeed, (rpm)
          7     1.891500000E+003                                                 F               0         ED GenSpeed, (rpm)
          8    -5.450441968E-003                                                 F               0         ED TTDspFA, (m)
          9    -5.375105320E-005                                                 F               0         ED TTDspSS, (m)
         10     0.000000000E+000                                                 F               0         ED TTDspTwst, (deg)
         11    -4.556428528E+001                                                 T               0         ED Spn2MLxb1, (kN-m)
         12     3.066017456E+002                                                 T               0         ED Spn2MLyb1, (kN-m)
         13     6.972462463E+001                                                 T               0         ED RootFxb1, (kN)
         14    -1.176738858E+000                                                 T               0         ED RootFyb1, (kN)
         15     1.616684692E+003                                                 T               0         ED RootFzb1, (kN)
         16    -4.025979042E+000                                                 T               0         ED RootMxb1, (kN-m)
         17     1.912777954E+003                                                 T               0         ED RootMyb1, (kN-m)
         18     1.893943071E+000                                                 T               0         ED RootMzb1, (kN-m)
         19    -1.655552745E+000                                                 F               0         ED RotTorq, (kN-m)
         20    -1.721092987E+001                                                 F               0         ED LSSGagMya, (kN-m)
         21    -1.553418350E+001                                                 F               0         ED LSSGagMza, (kN-m)
         22    -8.476833344E+000                                                 F               0         ED YawBrFxp, (kN)
         23    -9.384373575E-002                                                 F               0         ED YawBrFyp, (kN)
         24    -1.689699292E-002                                                 F               0         ED YawBrFzp, (kN)
         25    -1.899084449E+000                                                 F               0         ED YawBrMxp, (kN-m)
         26    -3.990406799E+001                                                 F               0         ED YawBrMyp, (kN-m)
         27    -4.785315514E+000                                                 F               0         ED YawBrMzp, (kN-m)
         28    -1.060172653E+001                                                 F               0         ED TwrBsFxt, (kN)
         29    -1.197771430E-001                                                 F               0         ED TwrBsFyt, (kN)
         30    -1.785837859E-002                                                 F               0         ED TwrBsFzt, (kN)
         31     7.950100422E+000                                                 F               0         ED TwrBsMxt, (kN-m)
         32    -9.160517578E+002                                                 F               0         ED TwrBsMyt, (kN-m)
         33    -4.785480976E+000                                                 F               0         ED TwrBsMzt, (kN-m)


Linearized state matrices:

A: 16 x 16
     0.000000000E+000   0.000000000E+000   0.000000000E+000   0.000000000E+000   0.000000000E+000   0.000000000E+000   0.000000000E+000   0.000000000E+000   1.000000000E+000   0.000000000E+000   0.000000000E+000   0.000000000E+000   0.000000000E+000   0.000000000E+000   0.000000000E+000   0.000000000E+000
     0.000000000E+000   0.000000000E+000   0.000000000E+000   0.000000000E+000   0.000000000E+000   0.000000000E+000   0.000000000E+000   0.000000000E+000   0.000000000E+000   1.000000000E+000   0.000000000E+000   0.000000000E+000   0.000000000E+000   0.000000000E+000   0.000000000E+000   0.000000000E+000
     0.000000000E+000   0.000000000E+000   0.000000000E+000   0.000000000E+000   0.000000000E+000   0.000000000E+000   0.000000000E+000   0.000000000E+000   0.000000000E+000   0.000000000E+000   1.000000000E+000   0.000000000E+000   0.000000000E+000   0.000000000E+000   0.000000000E+000   0.000000000E+000
     0.000000000E+000   0.000000000E+000   0.000000000E+000   0.000000000E+000   0.000000000E+000   0.000000000E+000   0.000000000E+000   0.000000000E+000   0.000000000E+000   0.000000000E+000   0.000000000E+000   1.000000000E+000   0.000000000E+000   0.000000000E+000   0.000000000E+000   0.000000000E+000
     0.000000000E+000   0.000000000E+000   0.000000000E+000   0.000000000E+000   0.000000000E+000   0.000000000E+000   0.000000000E+000   0.000000000E+000   0.000000000E+000   0.000000000E+000   0.000000000E+000   0.000000000E+000   1.000000000E+000   0.000000000E+000   0.000000000E+000   0.000000000E+000
     0.000000000E+000   0.000000000E+000   0.000000000E+000   0.000000000E+000   0.000000000E+000   0.000000000E+000   0.000000000E+000   0.000000000E+000   0.000000000E+000   0.000000000E+000   0.000000000E+000   0.000000000E+000   0.000000000E+000   1.000000000E+000   0.000000000E+000   0.000000000E+000
     0.000000000E+000   0.000000000E+000   0.000000000E+000   0.000000000E+000   0.000000000E+000   0.000000000E+000   0.000000000E+000   0.000000000E+000   0.000000000E+000   0.000000000E+000   0.000000000E+000   0.000000000E+000   0.000000000E+000   0.000000000E+000   1.000000000E+000   0.000000000E+000
     0.000000000E+000   0.000000000E+000   0.000000000E+000   0.000000000E+000   0.000000000E+000   0.000000000E+000   0.000000000E+000   0.000000000E+000   0.000000000E+000   0.000000000E+000   0.000000000E+000   0.000000000E+000   0.000000000E+000   0.000000000E+000   0.000000000E+000   1.000000000E+000
    -4.706993511E+000  -6.739550528E-002   2.059268302E-001   1.226045511E-001   5.460013581E-002  -7.872105444E-001  -5.131414765E-001  -3.705134216E-001  -1.209831150E-002  -8.099258299E-003   1.052767365E-003   4.863696683E-004  -6.462302769E-004  -1.200974522E-003  -4.844136137E-004   7.216951389E-004
    -7.007018563E-002  -4.112114801E+000   3.129064075E-002   2.921839268E-002  -8.628163397E-003  -3.010319691E-001  -1.913217382E-001   4.995089877E-002  -2.251960975E-003  -1.374880521E-002  -2.785821258E-003   3.029389923E-003  -1.779502109E-003   2.857342405E-003  -4.345690666E-003   2.166030018E-003
     1.960541410E+001   2.770037028E+000  -2.595025710E+001  -5.272408389E-001  -2.216928578E-001   6.000316336E+000   2.248490051E+000   1.509603230E+000  -3.797620137E+000  -3.403018716E-001  -4.363850021E-002  -3.856069616E-003   3.763470849E-003  -3.414630384E-003   4.645142634E-003  -4.311199326E-003
     1.108883401E+001   2.735621386E+000  -5.028082104E-001  -2.538163222E+001  -1.227113883E-001   2.035792692E+000   3.870331826E+000   8.381007931E-001   7.801141096E+000   3.119573748E-001  -7.247138225E-004  -4.401527707E-002   2.631385418E-003   1.027663238E-003  -2.811730148E-003  -3.050657362E-003
     3.905159185E+000  -5.786073889E-001  -1.665250552E-001  -9.751219086E-002  -2.512226531E+001   6.086021769E-001   3.974726767E-001   2.863152046E+000  -3.912457216E+000   9.423942950E-001  -1.305740294E-003   6.259549069E-005  -4.068203760E-002   1.440096189E-003  -2.672714709E-004  -6.854150547E-003
    -1.585392415E+001  -5.619055744E+000  -2.327245384E+000   4.488711449E-001   1.715141009E-001  -1.760485941E+002  -1.969223691E+000  -1.175164170E+000   2.038422424E+000   4.418515698E-002   2.629176303E-002   5.602099398E-003  -4.497997974E-003  -1.158435594E-001  -7.322061523E-003   5.257680917E-003
    -1.025970330E+001  -3.641824402E+000   4.728393157E-001  -2.768740919E+000   1.109840768E-001  -1.961759756E+000  -1.742947282E+002  -7.604411582E-001  -4.225365601E+000  -3.001962057E-001  -8.663648571E-005   2.992134536E-002  -2.912970862E-003  -1.737336709E-004  -1.203419274E-001   3.405055244E-003
    -7.193984740E+000   8.736126007E-001   3.080428499E-001   1.808875113E-001  -2.972259984E+000  -1.134490298E+000  -7.406800347E-001  -1.735964637E+002   2.097639676E+000  -6.349655276E-001   2.274444478E-003   2.562458773E-005   2.553247542E-002  -2.518480156E-003   2.899937218E-004  -1.148425266E-001
B: 16 x 6
     0.000000000E+000   0.000000000E+000   0.000000000E+000   0.000000000E+000   0.000000000E+000   0.000000000E+000
     0.000000000E+000   0.000000000E+000   0.000000000E+000   0.000000000E+000   0.000000000E+000   0.000000000E+000
     0.000000000E+000   0.000000000E+000   0.000000000E+000   0.000000000E+000   0.000000000E+000   0.000000000E+000
     0.000000000E+000   0.000000000E+000   0.000000000E+000   0.000000000E+000   0.000000000E+000   0.000000000E+000
     0.000000000E+000   0.000000000E+000   0.000000000E+000   0.000000000E+000   0.000000000E+000   0.000000000E+000
     0.000000000E+000   0.000000000E+000   0.000000000E+000   0.000000000E+000   0.000000000E+000   0.000000000E+000
     0.000000000E+000   0.000000000E+000   0.000000000E+000   0.000000000E+000   0.000000000E+000   0.000000000E+000
     0.000000000E+000   0.000000000E+000   0.000000000E+000   0.000000000E+000   0.000000000E+000   0.000000000E+000
     4.546014428E-002   2.163904993E-002   1.355925536E-002   0.000000000E+000   0.000000000E+000   8.065844957E-002
     2.402523298E-002   8.177368673E-003  -1.598446244E-002   0.000000000E+000   0.000000000E+000   1.621813922E-002
    -2.365075183E+000  -9.488451629E-002  -4.667151954E-002   0.000000000E+000   0.000000000E+000  -2.506631219E+000
    -1.217250372E-001  -2.203122366E+000  -2.180067150E-002   0.000000000E+000   0.000000000E+000  -2.346648075E+000
    -3.412135999E-002  -1.674445278E-002  -2.177144899E+000   0.000000000E+000   0.000000000E+000  -2.228010712E+000
     4.969987208E+000   8.318514353E-002   2.443795628E-002   0.000000000E+000   0.000000000E+000   5.077610308E+000
     1.189334927E-001   4.824650482E+000   1.579585668E-002   0.000000000E+000   0.000000000E+000   4.959379832E+000
     6.393772474E-002   3.120831771E-002   4.819482339E+000   0.000000000E+000   0.000000000E+000   4.914628382E+000
C: 33 x 16
     0.000000000E+000   0.000000000E+000   9.910331000E-001   0.000000000E+000   0.000000000E+000   1.012657451E+000   0.000000000E+000   0.000000000E+000   0.000000000E+000   0.000000000E+000   0.000000000E+000   0.000000000E+000   0.000000000E+000   0.000000000E+000   0.000000000E+000   0.000000000E+000
     0.000000000E+000   0.000000000E+000  -1.265685071E-001   0.000000000E+000   0.000000000E+000   4.159161788E-002   0.000000000E+000   0.000000000E+000   0.000000000E+000   0.000000000E+000   0.000000000E+000   0.000000000E+000   0.000000000E+000   0.000000000E+000   0.000000000E+000   0.000000000E+000
     0.000000000E+000   0.000000000E+000   0.000000000E+000   0.000000000E+000   0.000000000E+000   0.000000000E+000   0.000000000E+000   0.000000000E+000   0.000000000E+000   0.000000000E+000   0.000000000E+000   0.000000000E+000   0.000000000E+000   0.000000000E+000   0.000000000E+000   0.000000000E+000
     0.000000000E+000   0.000000000E+000   0.000000000E+000   0.000000000E+000   0.000000000E+000   0.000000000E+000   0.000000000E+000   0.000000000E+000   0.000000000E+000   0.000000000E+000   0.000000000E+000   0.000000000E+000   0.000000000E+000   0.000000000E+000   0.000000000E+000   0.000000000E+000
     0.000000000E+000   0.000000000E+000   0.000000000E+000   0.000000000E+000   0.000000000E+000   0.000000000E+000   0.000000000E+000   0.000000000E+000   0.000000000E+000   0.000000000E+000   0.000000000E+000   0.000000000E+000   0.000000000E+000   0.000000000E+000   0.000000000E+000   0.000000000E+000
     0.000000000E+000   0.000000000E+000   0.000000000E+000   0.000000000E+000   0.000000000E+000   0.000000000E+000   0.000000000E+000   0.000000000E+000   0.000000000E+000   0.000000000E+000   0.000000000E+000   0.000000000E+000   0.000000000E+000   0.000000000E+000   0.000000000E+000   0.000000000E+000
     0.000000000E+000   0.000000000E+000   0.000000000E+000   0.000000000E+000   0.000000000E+000   0.000000000E+000   0.000000000E+000   0.000000000E+000   0.000000000E+000   0.000000000E+000   0.000000000E+000   0.000000000E+000   0.000000000E+000   0.000000000E+000   0.000000000E+000   0.000000000E+000
     9.999999439E-001   0.000000000E+000   0.000000000E+000   0.000000000E+000   0.000000000E+000   0.000000000E+000   0.000000000E+000   0.000000000E+000   0.000000000E+000   0.000000000E+000   0.000000000E+000   0.000000000E+000   0.000000000E+000   0.000000000E+000   0.000000000E+000   0.000000000E+000
     0.000000000E+000  -1.000000005E+000   0.000000000E+000   0.000000000E+000   0.000000000E+000   0.000000000E+000   0.000000000E+000   0.000000000E+000   0.000000000E+000   0.000000000E+000   0.000000000E+000   0.000000000E+000   0.000000000E+000   0.000000000E+000   0.000000000E+000   0.000000000E+000
     0.000000000E+000   0.000000000E+000   0.000000000E+000   0.000000000E+000   0.000000000E+000   0.000000000E+000   0.000000000E+000   0.000000000E+000   0.000000000E+000   0.000000000E+000   0.000000000E+000   0.000000000E+000   0.000000000E+000   0.000000000E+000   0.000000000E+000   0.000000000E+000
    -9.723245393E+001   3.981933613E+002   2.640313465E+001  -1.296647554E-001   2.045325135E+000  -6.357963884E+002   7.251328639E+000  -1.305017035E+001   2.265439678E+001   2.846161708E+000  -3.037846023E+000  -2.837360535E-001   1.591534031E-001  -3.579685485E-001   4.107442541E-001  -1.921782006E-001
    -3.138269256E+001  -1.313941291E+001   4.896125884E+002   9.021980216E-001   3.347792233E-001   4.771463981E+002  -3.988208539E+000  -2.299385961E+000   3.015013968E+000  -1.397225937E-002   1.141803279E+000   1.250979688E-002  -9.666661225E-003   3.162988416E-001  -1.492646219E-002   1.208332653E-002
     5.342018914E+001  -1.430210449E+001   4.792009190E+001  -1.291050131E+000  -6.542588229E-001  -2.104888827E+002   5.150517934E+000   4.408459528E+000  -3.570411278E+000  -8.819988726E-002   1.632137562E-001   5.561884124E-003   8.174015007E-004  -1.878246492E-001  -1.066175870E-002  -1.776959784E-004
     4.762698398E+000  -9.551558917E+001  -8.766242940E+000   5.128478080E-001  -2.746438501E-001   7.853219902E+001  -3.751628556E+000   1.665263979E+000  -2.420588676E+000  -5.132017883E-001   1.925949532E-001   6.952771630E-002  -4.064684446E-002  -1.151636530E-001  -1.033191054E-001   5.136802026E-002
     9.030071625E+000  -3.739375814E+001  -4.440977892E-001   1.478430540E-002  -1.910587160E-001  -2.081175299E+000  -6.937250997E-001   1.216862060E+000   5.588903747E-001   3.293860344E+001   1.457107023E+000   2.672547515E-002  -1.449999184E-002  -1.896371482E+000  -3.696076351E-002   1.705881393E-002
    -3.321577190E+002   2.282335883E+003   3.159898638E+002  -6.587954012E+000   9.104802645E+000  -2.760856197E+003   6.597640664E+001  -5.700084950E+001   9.102391323E+001   1.403529827E+001  -9.146516776E+000  -1.646953519E+000   9.389744255E-001   3.151749145E+000   2.379560165E+000  -1.147916021E+000
     4.814581093E+002  -4.416511424E+002   1.796098352E+003  -9.551798545E+000  -6.614839414E+000  -4.725800379E+003   3.244302095E+001   4.394634781E+001  -5.150973218E+001  -3.008027838E+000   6.250065109E+000   2.794802348E-001  -1.273724773E-001  -4.600193489E+000  -4.264703482E-001   1.649018680E-001
     2.532191318E+000  -1.188596791E+001   2.315000439E+000   1.355986905E-002  -5.684660939E-002   1.142630120E+001  -2.591362665E-001   3.617584705E-001  -6.057504633E-001  -8.107730973E-002   7.466646188E-002   8.475542870E-003  -5.142077375E-003  -5.294784857E-003  -1.242483599E-002   8.857033924E-003
    -1.040083884E+003   3.092791548E+003   3.547334866E+002   3.372089670E+002   3.498424403E+002  -2.945873072E+003  -2.965022835E+003  -3.114387144E+003  -1.245936464E+000  -1.806509046E+001  -8.810474801E+000  -1.331537160E+001  -9.895008332E+000   2.668299471E+000   8.279824632E+000   3.626872097E+000
     3.116137571E+002  -8.674724010E+002   1.885263635E+003  -9.785262629E+002  -9.222400667E+002  -5.131578386E+003   2.798831427E+003   2.354987743E+003  -6.659294210E+001  -1.872488597E+001   9.129535149E+000  -3.510917141E+000  -5.995277952E+000  -8.359529608E+000   3.154192465E+000   5.420393701E+000
     2.749864772E+002   7.022296628E+002   1.757225979E+001   1.610224947E+003  -1.658044782E+003  -1.850869761E+002  -4.234880766E+003   4.588360714E+003   1.675405824E+002  -3.831128024E+000  -4.848879011E-001   8.388953841E+000  -7.681977064E+000   1.420012987E-001  -7.365875909E+000   7.145288564E+000
     1.589395277E+003   3.648849296E+000  -1.893393297E+001   7.851280239E+000   3.171325467E+001   4.274066949E+001  -3.750451320E+001  -9.483375598E+001   4.706125172E+000  -1.044176883E-001  -1.468101962E-001  -8.367259383E-003   2.059518602E-001   1.533738414E-001   8.440558974E-004  -2.074600548E-001
    -1.710768271E+001  -1.491814390E+003   3.923214847E+000   8.547975083E+000   5.672097834E+000  -3.970049676E+001  -5.839486890E+001  -5.947497169E+001   3.989365859E-001  -5.680208797E+000  -4.750931044E-002  -3.972446351E-001  -1.161111509E-001  -7.929266561E-002   3.633632873E-001  -2.773584338E-002
     1.971519519E+001   2.676170597E+000   9.344006976E-001  -1.409043148E+001  -1.568779505E+000  -2.834037620E+001   1.054536784E+002  -1.281663341E+001   7.240881710E+000   3.495965577E-001   1.148513454E+000   2.370877530E-001  -1.420187490E+000  -1.565476234E+000  -1.624189831E-001   1.764970511E+000
    -9.990160458E+002   6.009014655E+003   2.681645194E+002   4.845114344E+002   2.492440913E+002  -2.674225498E+003  -3.287821617E+003  -2.718394855E+003   1.332558235E+001  -6.443359647E+000  -9.437396763E+000  -1.122665977E+001  -1.013391724E+001   3.551126409E+000   6.220517045E+000   4.241625217E+000
     3.652753295E+003  -3.933693140E+002   1.621983729E+003  -6.690780011E+001  -1.553333802E+003  -4.600143379E+003   5.308430575E+002   4.041507737E+003   5.734708016E+001  -1.794742953E+001   1.099385472E+001   1.868393250E+000  -1.300342742E+001  -1.178284263E+001  -1.456040847E+000   1.330738528E+001
     1.402784276E+002   2.741382238E+002  -9.210882413E+002   1.856855876E+003  -1.036745720E+003   2.382618401E+003  -4.844892224E+003   3.321464086E+003   1.758527356E+002   8.015796313E+000  -7.480169407E+000   1.514571792E+001  -4.669114540E+000   7.819644802E+000  -1.517658038E+001   5.961100352E+000
     2.037651181E+003   1.006682575E+001  -3.854494981E+001  -3.823231151E+000   2.651371041E+001   1.177115690E+002   1.135257403E+001  -5.954754384E+001   5.857557859E+000   6.668635040E-001  -2.471839908E-001  -5.470592815E-002   2.676323555E-001   2.679211114E-001   4.700058629E-002  -2.763838824E-001
    -2.383585190E+001  -1.886659711E+003   6.927744262E+000   1.135354470E+001   4.843622542E+000  -6.860558523E+001  -7.676571774E+001  -5.467866293E+001   1.826951370E-001  -7.000370453E+000  -3.150053398E-001  -1.063627391E-001  -2.869775475E-001   1.950713133E-001  -5.391077336E-002   1.802439374E-001
     2.008377980E+001   2.672817147E+000   9.312983063E-001  -1.409034041E+001  -1.565889586E+000  -2.833154694E+001   1.054528121E+002  -1.282411608E+001   7.240111754E+000   3.396616621E-001   1.148492422E+000   2.370837965E-001  -1.420163196E+000  -1.565453675E+000  -1.624157294E-001   1.764945523E+000