
Linearized model: Predictions were generated on 17-Jan-2026 at 06:32:31 using OpenFAST, compiled as a 64-bit application using single precision at commit v3.5.1
 linked with  NWTC Subroutine Library; ElastoDyn

Description from the FAST input file: FAST Certification Test #18: NREL 5.0 MW Baseline Wind Turbine (Onshore)

Simulation information:
   Simulation time:                    35.8125 s
   Rotor Speed:                         2.0420 rad/s
   Azimuth:                             4.0154 rad
   Wind Speed:                          0.0000 m/s
   Number of continuous states:        16
   Number of discrete states:           0
   Number of constraint states:         0
   Number of inputs:                    6
   Number of outputs:                  33
   Jacobians included in this file?    No

Order of continuous states:
   Row/Column Operating Point                                             Rotating Frame? Derivative Order Description
   ---------- ---------------                                             --------------- ---------------- -----------
          1     1.477313577E-003                                                 F               2         ED 1st tower fore-aft bending mode DOF (internal DOF index = DOF_TFA1), m
          2     2.331468044E-003                                                 F               2         ED 1st tower side-to-side bending mode DOF (internal DOF index = DOF_TSS1), m
          3     7.431185842E-001                                                 T               2         ED 1st flapwise bending-mode DOF of blade 1 (internal DOF index = DOF_BF(1,1)), m
          4     7.437332869E-001                                                 T               2         ED 1st flapwise bending-mode DOF of blade 2 (internal DOF index = DOF_BF(2,1)), m
          5     7.305366397E-001                                                 T               2         ED 1st flapwise bending-mode DOF of blade 3 (internal DOF index = DOF_BF(3,1)), m
          6    -7.182174921E-002                                                 T               2         ED 2nd flapwise bending-mode DOF of blade 1 (internal DOF index = DOF_BF(1,2)), m
          7    -7.175885886E-002                                                 T               2         ED 2nd flapwise bending-mode DOF of blade 2 (internal DOF index = DOF_BF(2,2)), m
          8    -7.107508183E-002                                                 T               2         ED 2nd flapwise bending-mode DOF of blade 3 (internal DOF index = DOF_BF(3,2)), m
          9    -1.141092926E-002                                                 F               2         ED First time derivative of 1st tower fore-aft bending mode DOF (internal DOF index = DOF_TFA1), m/s
         10     8.635622216E-004                                                 F               2         ED First time derivative of 1st tower side-to-side bending mode DOF (internal DOF index = DOF_TSS1), m/s
         11     3.610299900E-002                                                 T               2         ED First time derivative of 1st flapwise bending-mode DOF of blade 1 (internal DOF index = DOF_BF(1,1)), m/s
         12    -1.850742102E-002                                                 T               2         ED First time derivative of 1st flapwise bending-mode DOF of blade 2 (internal DOF index = DOF_BF(2,1)), m/s
         13     4.818124231E-003                                                 T               2         ED First time derivative of 1st flapwise bending-mode DOF of blade 3 (internal DOF index = DOF_BF(3,1)), m/s
         14     2.114272065E-004                                                 T               2         ED First time derivative of 2nd flapwise bending-mode DOF of blade 1 (internal DOF index = DOF_BF(1,2)), m/s
         15     3.018198302E-003                                                 T               2         ED First time derivative of 2nd flapwise bending-mode DOF of blade 2 (internal DOF index = DOF_BF(2,2)), m/s
         16     1.357931644E-003                                                 T               2         ED First time derivative of 2nd flapwise bending-mode DOF of blade 3 (internal DOF index = DOF_BF(3,2)), m/s

Order of continuous state derivatives:
   Row/Column Operating Point                                             Rotating Frame? Derivative Order Description
   ---------- ---------------                                             --------------- ---------------- -----------
          1    -1.141092926E-002                                                 F               2         First time derivative of ED 1st tower fore-aft bending mode DOF (internal DOF index = DOF_TFA1), m/s
          2     8.635622216E-004                                                 F               2         First time derivative of ED 1st tower side-to-side bending mode DOF (internal DOF index = DOF_TSS1), m/s
          3     3.610299900E-002                                                 T               2         First time derivative of ED 1st flapwise bending-mode DOF of blade 1 (internal DOF index = DOF_BF(1,1)), m/s
          4    -1.850742102E-002                                                 T               2         First time derivative of ED 1st flapwise bending-mode DOF of blade 2 (internal DOF index = DOF_BF(2,1)), m/s
          5     4.818124231E-003                                                 T               2         First time derivative of ED 1st flapwise bending-mode DOF of blade 3 (internal DOF index = DOF_BF(3,1)), m/s
          6     2.114272065E-004                                                 T               2         First time derivative of ED 2nd flapwise bending-mode DOF of blade 1 (internal DOF index = DOF_BF(1,2)), m/s
          7     3.018198302E-003                                                 T               2         First time derivative of ED 2nd flapwise bending-mode DOF of blade 2 (internal DOF index = DOF_BF(2,2)), m/s
          8     1.357931644E-003                                                 T               2         First time derivative of ED 2nd flapwise bending-mode DOF of blade 3 (internal DOF index = DOF_BF(3,2)), m/s
          9    -5.899470299E-003                                                 F               2         First time derivative of ED First time derivative of 1st tower fore-aft bending mode DOF (internal DOF index = DOF_TFA1), m/s/s
         10    -9.704029188E-003                                                 F               2         First time derivative of ED First time derivative of 1st tower side-to-side bending mode DOF (internal DOF index = DOF_TSS1), m/s/s
         11    -5.813925713E-002                                                 T               2         First time derivative of ED First time derivative of 1st flapwise bending-mode DOF of blade 1 (internal DOF index = DOF_BF(1,1)), m/s/s
         12    -7.548429817E-002                                                 T               2         First time derivative of ED First time derivative of 1st flapwise bending-mode DOF of blade 2 (internal DOF index = DOF_BF(2,1)), m/s/s
         13     1.269585341E-001                                                 T               2         First time derivative of ED First time derivative of 1st flapwise bending-mode DOF of blade 3 (internal DOF index = DOF_BF(3,1)), m/s/s
         14    -7.649563253E-003                                                 T               2         First time derivative of ED First time derivative of 2nd flapwise bending-mode DOF of blade 1 (internal DOF index = DOF_BF(1,2)), m/s/s
         15    -8.237773553E-003                                                 T               2         First time derivative of ED First time derivative of 2nd flapwise bending-mode DOF of blade 2 (internal DOF index = DOF_BF(2,2)), m/s/s
         16    -1.830065623E-002                                                 T               2         First time derivative of ED First time derivative of 2nd flapwise bending-mode DOF of blade 3 (internal DOF index = DOF_BF(3,2)), m/s/s

Order of inputs:
     Column   Operating Point                                             Rotating Frame? Derivative Order Description
   ---------- ---------------                                             --------------- ---------------- -----------
          1     0.000000000E+000                                                 T               0         ED Blade 1 pitch command, rad
          2     0.000000000E+000                                                 T               0         ED Blade 2 pitch command, rad
          3     0.000000000E+000                                                 T               0         ED Blade 3 pitch command, rad
          4     0.000000000E+000                                                 F               0         ED Yaw moment, Nm
          5     0.000000000E+000                                                 F               0         ED Generator torque, Nm
          6     0.000000000E+000                                                 F               0         ED Extended input: collective blade-pitch command, rad

Order of outputs:
        Row   Operating Point                                             Rotating Frame? Derivative Order Description
   ---------- ---------------                                             --------------- ---------------- -----------
          1     6.637242436E-001                                                 T               0         ED OoPDefl1, (m)
          2    -9.704259783E-002                                                 T               0         ED IPDefl1, (m)
          3     0.000000000E+000                                                 T               0         ED TwstDefl1, (deg)
          4     0.000000000E+000                                                 T               0         ED BldPitch1, (deg)
          5     2.300627289E+002                                                 F               0         ED Azimuth, (deg)
          6     1.950000000E+001                                                 F               0         ED RotSpeed, (rpm)
          7     1.891500000E+003                                                 F               0         ED GenSpeed, (rpm)
          8     1.477313577E-003                                                 F               0         ED TTDspFA, (m)
          9    -2.331468044E-003                                                 F               0         ED TTDspSS, (m)
         10     0.000000000E+000                                                 F               0         ED TTDspTwst, (deg)
         11    -4.566296387E+001                                                 T               0         ED Spn2MLxb1, (kN-m)
         12     3.130733032E+002                                                 T               0         ED Spn2MLyb1, (kN-m)
         13     7.103864288E+001                                                 T               0         ED RootFxb1, (kN)
         14    -1.257873893E+000                                                 T               0         ED RootFyb1, (kN)
         15     1.616851440E+003                                                 T               0         ED RootFzb1, (kN)
         16    -1.092304587E+000                                                 T               0         ED RootMxb1, (kN-m)
         17     1.947620483E+003                                                 T               0         ED RootMyb1, (kN-m)
         18     1.946316361E+000                                                 T               0         ED RootMzb1, (kN-m)
         19     6.904428959E+000                                                 F               0         ED RotTorq, (kN-m)
         20     1.324742317E+001                                                 F               0         ED LSSGagMya, (kN-m)
         21     2.390276718E+001                                                 F               0         ED LSSGagMza, (kN-m)
         22     2.161366701E+000                                                 F               0         ED YawBrFxp, (kN)
         23    -3.532650232E+000                                                 F               0         ED YawBrFyp, (kN)
         24     4.635516182E-002                                                 F               0         ED YawBrFzp, (kN)
         25     1.137648869E+001                                                 F               0         ED YawBrMxp, (kN-m)
         26     1.433335781E+001                                                 F               0         ED YawBrMyp, (kN-m)
         27    -2.715336418E+001                                                 F               0         ED YawBrMzp, (kN-m)
         28     2.730914831E+000                                                 F               0         ED TwrBsFxt, (kN)
         29    -4.463846684E+000                                                 F               0         ED TwrBsFyt, (kN)
         30     4.623059928E-002                                                 F               0         ED TwrBsFzt, (kN)
         31     3.789435425E+002                                                 F               0         ED TwrBsMxt, (kN-m)
         32     2.394963684E+002                                                 F               0         ED TwrBsMyt, (kN-m)
         33    -2.715317917E+001                                                 F               0         ED TwrBsMzt, (kN-m)


Linearized state matrices:

A: 16 x 16
     0.000000000E+000   0.000000000E+000   0.000000000E+000   0.000000000E+000   0.000000000E+000   0.000000000E+000   0.000000000E+000   0.000000000E+000   1.000000000E+000   0.000000000E+000   0.000000000E+000   0.000000000E+000   0.000000000E+000   0.000000000E+000   0.000000000E+000   0.000000000E+000
     0.000000000E+000   0.000000000E+000   0.000000000E+000   0.000000000E+000   0.000000000E+000   0.000000000E+000   0.000000000E+000   0.000000000E+000   0.000000000E+000   1.000000000E+000   0.000000000E+000   0.000000000E+000   0.000000000E+000   0.000000000E+000   0.000000000E+000   0.000000000E+000
     0.000000000E+000   0.000000000E+000   0.000000000E+000   0.000000000E+000   0.000000000E+000   0.000000000E+000   0.000000000E+000   0.000000000E+000   0.000000000E+000   0.000000000E+000   1.000000000E+000   0.000000000E+000   0.000000000E+000   0.000000000E+000   0.000000000E+000   0.000000000E+000
     0.000000000E+000   0.000000000E+000   0.000000000E+000   0.000000000E+000   0.000000000E+000   0.000000000E+000   0.000000000E+000   0.000000000E+000   0.000000000E+000   0.000000000E+000   0.000000000E+000   1.000000000E+000   0.000000000E+000   0.000000000E+000   0.000000000E+000   0.000000000E+000
     0.000000000E+000   0.000000000E+000   0.000000000E+000   0.000000000E+000   0.000000000E+000   0.000000000E+000   0.000000000E+000   0.000000000E+000   0.000000000E+000   0.000000000E+000   0.000000000E+000   0.000000000E+000   1.000000000E+000   0.000000000E+000   0.000000000E+000   0.000000000E+000
     0.000000000E+000   0.000000000E+000   0.000000000E+000   0.000000000E+000   0.000000000E+000   0.000000000E+000   0.000000000E+000   0.000000000E+000   0.000000000E+000   0.000000000E+000   0.000000000E+000   0.000000000E+000   0.000000000E+000   1.000000000E+000   0.000000000E+000   0.000000000E+000
     0.000000000E+000   0.000000000E+000   0.000000000E+000   0.000000000E+000   0.000000000E+000   0.000000000E+000   0.000000000E+000   0.000000000E+000   0.000000000E+000   0.000000000E+000   0.000000000E+000   0.000000000E+000   0.000000000E+000   0.000000000E+000   1.000000000E+000   0.000000000E+000
     0.000000000E+000   0.000000000E+000   0.000000000E+000   0.000000000E+000   0.000000000E+000   0.000000000E+000   0.000000000E+000   0.000000000E+000   0.000000000E+000   0.000000000E+000   0.000000000E+000   0.000000000E+000   0.000000000E+000   0.000000000E+000   0.000000000E+000   1.000000000E+000
    -4.706984847E+000  -6.738708485E-002   7.524345582E-002   2.146023678E-001   9.328324514E-002  -4.352198448E-001  -8.015009453E-001  -4.341574701E-001  -1.210664700E-002  -8.089914906E-003  -4.810855529E-004   1.227919816E-003   1.418016302E-004   5.186314110E-004  -1.387103513E-003  -9.774080919E-005
    -7.010045649E-002  -4.112116845E+000  -6.671699562E-003   3.788700404E-002   2.069966809E-002   1.683376822E-002  -3.391526984E-001  -1.200475351E-001  -2.234924002E-003  -1.374227929E-002  -2.849120220E-003  -1.703521904E-003   3.014326374E-003   3.458036148E-003   1.439081085E-003  -4.194909178E-003
     6.024834551E+000  -4.384859700E-001  -2.517300540E+001  -2.702533860E-001  -1.169321397E-001   3.107042434E+000   9.840527958E-001   5.411898184E-001  -5.949641202E+000   7.774252518E-001  -4.072539013E-002  -1.792098405E-003   2.039830773E-004  -6.769315762E-003   1.962316366E-003  -4.115512930E-004
     2.053214467E+001   3.350881925E+000  -3.224230574E-001  -2.603815541E+001  -4.212795460E-001   1.881132177E+000   6.286832374E+000   1.978351621E+000  -1.277381381E+000  -4.289340968E-001   4.213010978E-003  -4.501571512E-002  -2.859690777E-003  -4.829417487E-003  -1.540925035E-003   3.546353049E-003
     8.041894162E+000   2.015878851E+000  -1.249456278E-001  -3.826681682E-001  -2.524498283E+001   7.327621084E-001   1.520563324E+000   3.340077536E+000   7.318789736E+000   5.630181778E-001   2.135629689E-003  -1.301878415E-003  -4.259688922E-002  -2.480994918E-003   1.694977036E-003  -4.547592903E-003
    -8.520875813E+000   2.688246448E-001  -2.922823222E+000   3.851858268E-001   1.670293367E-001  -1.738100593E+002  -1.419771159E+000  -7.751270679E-001   3.197641988E+000  -5.483350211E-001   2.547159701E-002   2.386896868E-003  -3.023970681E-005  -1.150729474E-001  -2.650099462E-003   2.225257394E-004
    -1.617206131E+001  -6.334402356E+000   2.469502255E-001  -2.269581018E+000   3.491709136E-001  -1.460700700E+000  -1.762581940E+002  -1.660305004E+000   6.778653519E-001   8.842280732E-002  -5.872420156E-003   2.770904322E-002   4.959504407E-003   6.904660902E-003  -1.182098928E-001  -6.561934661E-003
    -8.614401067E+000  -2.320942313E+000   1.335374851E-001   4.112856019E-001  -2.878648453E+000  -7.840307988E-001  -1.641725974E+000  -1.738781460E+002  -3.965833749E+000  -4.323252371E-001  -2.399514913E-003   1.326867120E-003   2.813220569E-002   2.793406430E-003  -1.758270107E-003  -1.180172135E-001
B: 16 x 6
     0.000000000E+000   0.000000000E+000   0.000000000E+000   0.000000000E+000   0.000000000E+000   0.000000000E+000
     0.000000000E+000   0.000000000E+000   0.000000000E+000   0.000000000E+000   0.000000000E+000   0.000000000E+000
     0.000000000E+000   0.000000000E+000   0.000000000E+000   0.000000000E+000   0.000000000E+000   0.000000000E+000
     0.000000000E+000   0.000000000E+000   0.000000000E+000   0.000000000E+000   0.000000000E+000   0.000000000E+000
     0.000000000E+000   0.000000000E+000   0.000000000E+000   0.000000000E+000   0.000000000E+000   0.000000000E+000
     0.000000000E+000   0.000000000E+000   0.000000000E+000   0.000000000E+000   0.000000000E+000   0.000000000E+000
     0.000000000E+000   0.000000000E+000   0.000000000E+000   0.000000000E+000   0.000000000E+000   0.000000000E+000
     0.000000000E+000   0.000000000E+000   0.000000000E+000   0.000000000E+000   0.000000000E+000   0.000000000E+000
     1.892949849E-002   4.536243571E-002   1.583698637E-002   0.000000000E+000   0.000000000E+000   8.012892057E-002
    -1.200554189E-002   2.972249209E-002  -3.857610888E-004   0.000000000E+000   0.000000000E+000   1.733118911E-002
    -2.187329732E+000  -5.434703025E-002  -2.035103919E-002   0.000000000E+000   0.000000000E+000  -2.262027801E+000
    -7.343059534E-002  -2.340860194E+000  -6.862026928E-002   0.000000000E+000   0.000000000E+000  -2.482911058E+000
    -2.665956762E-002  -9.092559096E-002  -2.181140836E+000   0.000000000E+000   0.000000000E+000  -2.298725994E+000
     4.849556356E+000   7.935174756E-002   2.872860017E-002   0.000000000E+000   0.000000000E+000   4.957636704E+000
     4.679403148E-002   4.973873615E+000   5.348939717E-002   0.000000000E+000   0.000000000E+000   5.074157044E+000
     2.807487288E-002   9.854370353E-002   4.814722052E+000   0.000000000E+000   0.000000000E+000   4.941340628E+000
C: 33 x 16
     0.000000000E+000   0.000000000E+000   9.910331000E-001   0.000000000E+000   0.000000000E+000   1.012657451E+000   0.000000000E+000   0.000000000E+000   0.000000000E+000   0.000000000E+000   0.000000000E+000   0.000000000E+000   0.000000000E+000   0.000000000E+000   0.000000000E+000   0.000000000E+000
     0.000000000E+000   0.000000000E+000  -1.265685071E-001   0.000000000E+000   0.000000000E+000   4.159161788E-002   0.000000000E+000   0.000000000E+000   0.000000000E+000   0.000000000E+000   0.000000000E+000   0.000000000E+000   0.000000000E+000   0.000000000E+000   0.000000000E+000   0.000000000E+000
     0.000000000E+000   0.000000000E+000   0.000000000E+000   0.000000000E+000   0.000000000E+000   0.000000000E+000   0.000000000E+000   0.000000000E+000   0.000000000E+000   0.000000000E+000   0.000000000E+000   0.000000000E+000   0.000000000E+000   0.000000000E+000   0.000000000E+000   0.000000000E+000
     0.000000000E+000   0.000000000E+000   0.000000000E+000   0.000000000E+000   0.000000000E+000   0.000000000E+000   0.000000000E+000   0.000000000E+000   0.000000000E+000   0.000000000E+000   0.000000000E+000   0.000000000E+000   0.000000000E+000   0.000000000E+000   0.000000000E+000   0.000000000E+000
     0.000000000E+000   0.000000000E+000   0.000000000E+000   0.000000000E+000   0.000000000E+000   0.000000000E+000   0.000000000E+000   0.000000000E+000   0.000000000E+000   0.000000000E+000   0.000000000E+000   0.000000000E+000   0.000000000E+000   0.000000000E+000   0.000000000E+000   0.000000000E+000
     0.000000000E+000   0.000000000E+000   0.000000000E+000   0.000000000E+000   0.000000000E+000   0.000000000E+000   0.000000000E+000   0.000000000E+000   0.000000000E+000   0.000000000E+000   0.000000000E+000   0.000000000E+000   0.000000000E+000   0.000000000E+000   0.000000000E+000   0.000000000E+000
     0.000000000E+000   0.000000000E+000   0.000000000E+000   0.000000000E+000   0.000000000E+000   0.000000000E+000   0.000000000E+000   0.000000000E+000   0.000000000E+000   0.000000000E+000   0.000000000E+000   0.000000000E+000   0.000000000E+000   0.000000000E+000   0.000000000E+000   0.000000000E+000
     1.000000005E+000   0.000000000E+000   0.000000000E+000   0.000000000E+000   0.000000000E+000   0.000000000E+000   0.000000000E+000   0.000000000E+000   0.000000000E+000   0.000000000E+000   0.000000000E+000   0.000000000E+000   0.000000000E+000   0.000000000E+000   0.000000000E+000   0.000000000E+000
     0.000000000E+000  -1.000000005E+000   0.000000000E+000   0.000000000E+000   0.000000000E+000   0.000000000E+000   0.000000000E+000   0.000000000E+000   0.000000000E+000   0.000000000E+000   0.000000000E+000   0.000000000E+000   0.000000000E+000   0.000000000E+000   0.000000000E+000   0.000000000E+000
     0.000000000E+000   0.000000000E+000   0.000000000E+000   0.000000000E+000   0.000000000E+000   0.000000000E+000   0.000000000E+000   0.000000000E+000   0.000000000E+000   0.000000000E+000   0.000000000E+000   0.000000000E+000   0.000000000E+000   0.000000000E+000   0.000000000E+000   0.000000000E+000
    -8.222487509E+000   8.018417671E+001   2.530898943E+001  -3.021986657E-001  -2.145057003E-001  -6.487707270E+002   4.992812753E+000   1.463326382E+000   3.522593715E+001  -4.863531407E+000  -3.255168204E+000   3.631217319E-002  -5.887956245E-002  -9.719970019E-002  -3.456186780E-002   8.022973425E-002
    -2.047584709E+001   1.689146356E+000   4.884713182E+002   9.169112486E-001   3.964752670E-001   4.813755624E+002  -3.329311851E+000  -1.833822497E+000   4.740088990E+000  -8.787553124E-001   1.142656220E+000   6.183820049E-003  -9.240190877E-004   3.162988416E-001  -6.397055223E-003   7.107839136E-004
     3.948123864E+001  -2.585990754E+000   4.951491330E+001  -1.773459173E+000  -7.676110875E-001  -2.146992113E+002   6.472220622E+000   3.554630352E+000  -5.620091826E+000   1.035943230E+000   1.871138653E-001  -1.162131699E-002   1.119484664E-003  -2.141236540E-001   1.314950240E-002  -2.665439676E-003
    -6.146532954E+000   1.500547656E+001  -9.094654539E+000   1.528396428E-001   5.108065254E-002   8.381023603E+001   1.542706508E-001  -1.499198758E-001  -3.701079582E+000   5.421657674E-001   2.682481831E-001   7.878317793E-003  -1.083806643E-002  -1.983836774E-001  -8.859810423E-003   1.461827072E-002
    -1.420978778E+001  -5.822839290E+001  -2.123822334E-001   1.137538575E+000   5.544114526E-001  -1.958920466E+000  -7.033917609E+000  -2.911370910E+000   7.884346357E-001   3.267313051E+001   1.447440362E+000  -2.047057671E-002   4.264703482E-002  -1.873626396E+000   2.274508524E-002  -6.254898440E-002
     4.351561158E+001   6.105783389E+001   3.169306574E+002  -2.493885870E+000  -1.146225965E+000  -2.862391857E+003   1.221941527E+001   5.683857143E+000   1.407614062E+002  -1.985843619E+001  -1.067621427E+001   1.399272535E-002  -4.559373391E-002   4.823908561E+000  -9.306826869E-003   6.317092032E-002
     2.816368360E+002  -5.475728446E+001   1.809379776E+003  -1.234432638E+001  -5.305859758E+000  -4.748494288E+003   4.328105407E+001   2.435145688E+001  -8.055406733E+001   1.367484985E+001   6.639574694E+000  -9.808818008E-002   3.440194142E-002  -5.032350108E+000   9.950974791E-002  -5.117644178E-002
     1.253663311E-001  -1.644050343E+000   2.351446440E+000   7.871098894E-003   5.517737779E-003   1.210130992E+001  -1.082945928E-001  -3.114122022E-002  -9.600178013E-001   1.344498591E-001   8.327555438E-002  -6.677481689E-004   1.218050402E-003  -1.208332653E-002  -3.773263041E-003  -2.915324646E-004
    -1.040181815E+003   3.092785060E+003   3.534433427E+002   3.518051990E+002   3.367665751E+002  -3.104244258E+003  -2.920372811E+003  -3.000674867E+003  -1.054328603E+000  -1.809200967E+001  -9.061046677E+000  -9.503054317E+000  -1.335835071E+001   2.661274927E+000   3.739467488E+000   8.238240997E+000
    -3.258413533E+002  -5.376141791E+002   1.896972805E+003  -9.568409565E+002  -9.076753224E+002  -5.149591072E+003   2.705744323E+003   2.273771796E+003  -1.530801672E+002   7.073175612E+000   9.388304918E+000  -4.252802294E+000  -5.267988303E+000  -8.579206261E+000   4.142493073E+000   4.456948318E+000
     2.580860939E+002  -9.778962896E+002   2.845254679E+001   1.618586466E+003  -1.656987705E+003  -2.505351592E+002  -4.330347930E+003   4.572919289E+003  -9.520235949E+001  -1.772630605E+001  -1.546332616E+000   8.430927852E+000  -7.315290306E+000   1.361106771E+000  -7.716669982E+000   6.553338836E+000
     1.589394154E+003   3.643418672E+000   2.499675316E+001  -2.207457167E+001   1.770947552E+001  -7.527630892E+001   4.966298847E+001  -6.398801641E+001   4.706374677E+000  -1.038485059E-001   1.679204784E-001  -1.789226360E-001   6.227522153E-002  -1.665066848E-001   1.843151536E-001  -7.094511938E-002
    -1.711564737E+001  -1.491813642E+003   4.790922912E+000   4.610116143E+000   8.744823356E+000  -5.539270090E+001  -4.024770598E+001  -6.192823126E+001   4.024275796E-001  -5.681041129E+000  -5.161235223E-002  -1.093441097E-001  -3.978324201E-001  -1.062733011E-001   7.018991147E-003   3.557140308E-001
     1.979274630E+001   2.713410869E+000   1.175329790E+000  -1.883941926E+000  -1.403898406E+001  -3.697581769E+001  -2.246664397E+000   1.035189246E+002   7.118418794E+000   4.097807175E-001  -1.160801617E+000   1.404018406E+000  -2.816215755E-001   1.383226276E+000  -1.847680528E+000   5.000264184E-001
    -9.990918328E+002   6.008988707E+003   2.122364516E+002   3.181090660E+002   4.718079133E+002  -2.608549420E+003  -2.798685716E+003  -3.273182667E+003   1.350927234E+001  -6.467565495E+000  -9.794744487E+000  -9.615016110E+000  -1.129526264E+001   3.801450066E+000   4.037541385E+000   6.243592533E+000
     3.652794713E+003  -3.935104089E+002  -1.130640275E+003   1.816809031E+003  -6.844761662E+002   2.797338248E+003  -5.015462593E+003   2.190456549E+003   5.730834457E+001  -1.795028324E+001  -1.046780577E+001   1.323594927E+001  -2.948771471E+000   1.050096606E+001  -1.399107056E+001   3.545279101E+000
     1.403602651E+002   2.739369672E+002  -1.521084825E+003  -3.020799648E+002   1.722267521E+003   4.556557754E+003   6.601927136E+002  -4.357155145E+003   1.758296876E+002   8.027125383E+000  -8.773294694E+000  -3.093455979E+000   1.484355813E+001   1.007700566E+001   3.211410570E+000  -1.462726658E+001
     2.037653178E+003   1.006093120E+001   1.783116283E+001  -4.251174598E+001   8.825498996E+000  -3.383027125E+001   1.259918240E+002  -2.263929505E+001   5.859514911E+000   6.665867098E-001   2.137038472E-001  -2.958221566E-001   4.876310827E-002  -2.158617428E-001   3.163654776E-001  -6.162163351E-002
    -2.384766048E+001  -1.886660584E+003   4.150248391E+000   8.248124780E+000   1.073309031E+001  -5.377450136E+001  -7.281307616E+001  -7.346023936E+001   1.874793396E-001  -7.000600952E+000  -3.251269999E-001  -2.729843362E-001  -1.083834408E-001   2.256627866E-001   1.452997803E-001  -4.710054028E-002
     1.969451359E+001   2.546603621E+000   1.174981617E+000  -1.882683061E+000  -1.403884412E+001  -3.697710599E+001  -2.252072671E+000   1.035166812E+002   7.093941025E+000   4.112647096E-001  -1.160816471E+000   1.404015768E+000  -2.816350936E-001   1.383234952E+000  -1.847683825E+000   5.000352685E-001