
Linearized model: Predictions were generated on 17-Jan-2026 at 06:32:31 using OpenFAST, compiled as a 64-bit application using single precision at commit v3.5.1
 linked with  NWTC Subroutine Library; ElastoDyn

Description from the FAST input file: FAST Certification Test #18: NREL 5.0 MW Baseline Wind Turbine (Onshore)

Simulation information:
   Simulation time:                   171.2688 s
   Rotor Speed:                         2.6180 rad/s
   Azimuth:                             2.2744 rad
   Wind Speed:                          0.0000 m/s
   Number of continuous states:        16
   Number of discrete states:           0
   Number of constraint states:         0
   Number of inputs:                    6
   Number of outputs:                  33
   Jacobians included in this file?    No

Order of continuous states:
   Row/Column Operating Point                                             Rotating Frame? Derivative Order Description
   ---------- ---------------                                             --------------- ---------------- -----------
          1    -8.193517715E-005                                                 F               2         ED 1st tower fore-aft bending mode DOF (internal DOF index = DOF_TFA1), m
          2    -1.558048680E-004                                                 F               2         ED 1st tower side-to-side bending mode DOF (internal DOF index = DOF_TSS1), m
          3     1.034578443E+000                                                 T               2         ED 1st flapwise bending-mode DOF of blade 1 (internal DOF index = DOF_BF(1,1)), m
          4     1.035762072E+000                                                 T               2         ED 1st flapwise bending-mode DOF of blade 2 (internal DOF index = DOF_BF(2,1)), m
          5     1.034851193E+000                                                 T               2         ED 1st flapwise bending-mode DOF of blade 3 (internal DOF index = DOF_BF(3,1)), m
          6    -1.281150132E-001                                                 T               2         ED 2nd flapwise bending-mode DOF of blade 1 (internal DOF index = DOF_BF(1,2)), m
          7    -1.282000244E-001                                                 T               2         ED 2nd flapwise bending-mode DOF of blade 2 (internal DOF index = DOF_BF(2,2)), m
          8    -1.281231940E-001                                                 T               2         ED 2nd flapwise bending-mode DOF of blade 3 (internal DOF index = DOF_BF(3,2)), m
          9    -7.008136017E-004                                                 F               2         ED First time derivative of 1st tower fore-aft bending mode DOF (internal DOF index = DOF_TFA1), m/s
         10     4.792324034E-004                                                 F               2         ED First time derivative of 1st tower side-to-side bending mode DOF (internal DOF index = DOF_TSS1), m/s
         11     2.056099707E-003                                                 T               2         ED First time derivative of 1st flapwise bending-mode DOF of blade 1 (internal DOF index = DOF_BF(1,1)), m/s
         12     3.003531892E-004                                                 T               2         ED First time derivative of 1st flapwise bending-mode DOF of blade 2 (internal DOF index = DOF_BF(2,1)), m/s
         13    -3.117710585E-003                                                 T               2         ED First time derivative of 1st flapwise bending-mode DOF of blade 3 (internal DOF index = DOF_BF(3,1)), m/s
         14    -1.399621688E-004                                                 T               2         ED First time derivative of 2nd flapwise bending-mode DOF of blade 1 (internal DOF index = DOF_BF(1,2)), m/s
         15     3.784045839E-005                                                 T               2         ED First time derivative of 2nd flapwise bending-mode DOF of blade 2 (internal DOF index = DOF_BF(2,2)), m/s
         16     2.237837471E-004                                                 T               2         ED First time derivative of 2nd flapwise bending-mode DOF of blade 3 (internal DOF index = DOF_BF(3,2)), m/s

Order of continuous state derivatives:
   Row/Column Operating Point                                             Rotating Frame? Derivative Order Description
   ---------- ---------------                                             --------------- ---------------- -----------
          1    -7.008136017E-004                                                 F               2         First time derivative of ED 1st tower fore-aft bending mode DOF (internal DOF index = DOF_TFA1), m/s
          2     4.792324034E-004                                                 F               2         First time derivative of ED 1st tower side-to-side bending mode DOF (internal DOF index = DOF_TSS1), m/s
          3     2.056099707E-003                                                 T               2         First time derivative of ED 1st flapwise bending-mode DOF of blade 1 (internal DOF index = DOF_BF(1,1)), m/s
          4     3.003531892E-004                                                 T               2         First time derivative of ED 1st flapwise bending-mode DOF of blade 2 (internal DOF index = DOF_BF(2,1)), m/s
          5    -3.117710585E-003                                                 T               2         First time derivative of ED 1st flapwise bending-mode DOF of blade 3 (internal DOF index = DOF_BF(3,1)), m/s
          6    -1.399621688E-004                                                 T               2         First time derivative of ED 2nd flapwise bending-mode DOF of blade 1 (internal DOF index = DOF_BF(1,2)), m/s
          7     3.784045839E-005                                                 T               2         First time derivative of ED 2nd flapwise bending-mode DOF of blade 2 (internal DOF index = DOF_BF(2,2)), m/s
          8     2.237837471E-004                                                 T               2         First time derivative of ED 2nd flapwise bending-mode DOF of blade 3 (internal DOF index = DOF_BF(3,2)), m/s
          9     3.693826147E-004                                                 F               2         First time derivative of ED First time derivative of 1st tower fore-aft bending mode DOF (internal DOF index = DOF_TFA1), m/s/s
         10     6.109893438E-004                                                 F               2         First time derivative of ED First time derivative of 1st tower side-to-side bending mode DOF (internal DOF index = DOF_TSS1), m/s/s
         11     9.103397839E-003                                                 T               2         First time derivative of ED First time derivative of 1st flapwise bending-mode DOF of blade 1 (internal DOF index = DOF_BF(1,1)), m/s/s
         12    -1.365869585E-002                                                 T               2         First time derivative of ED First time derivative of 1st flapwise bending-mode DOF of blade 2 (internal DOF index = DOF_BF(2,1)), m/s/s
         13     4.879704211E-003                                                 T               2         First time derivative of ED First time derivative of 1st flapwise bending-mode DOF of blade 3 (internal DOF index = DOF_BF(3,1)), m/s/s
         14    -5.159216234E-004                                                 T               2         First time derivative of ED First time derivative of 2nd flapwise bending-mode DOF of blade 1 (internal DOF index = DOF_BF(1,2)), m/s/s
         15     9.118545568E-004                                                 T               2         First time derivative of ED First time derivative of 2nd flapwise bending-mode DOF of blade 2 (internal DOF index = DOF_BF(2,2)), m/s/s
         16    -5.232547992E-004                                                 T               2         First time derivative of ED First time derivative of 2nd flapwise bending-mode DOF of blade 3 (internal DOF index = DOF_BF(3,2)), m/s/s

Order of inputs:
     Column   Operating Point                                             Rotating Frame? Derivative Order Description
   ---------- ---------------                                             --------------- ---------------- -----------
          1     0.000000000E+000                                                 T               0         ED Blade 1 pitch command, rad
          2     0.000000000E+000                                                 T               0         ED Blade 2 pitch command, rad
          3     0.000000000E+000                                                 T               0         ED Blade 3 pitch command, rad
          4     0.000000000E+000                                                 F               0         ED Yaw moment, Nm
          5     0.000000000E+000                                                 F               0         ED Generator torque, Nm
          6     0.000000000E+000                                                 F               0         ED Extended input: collective blade-pitch command, rad

Order of outputs:
        Row   Operating Point                                             Rotating Frame? Derivative Order Description
   ---------- ---------------                                             --------------- ---------------- -----------
          1     8.955647349E-001                                                 T               0         ED OoPDefl1, (m)
          2    -1.362735629E-001                                                 T               0         ED IPDefl1, (m)
          3     0.000000000E+000                                                 T               0         ED TwstDefl1, (deg)
          4     0.000000000E+000                                                 T               0         ED BldPitch1, (deg)
          5     1.303120422E+002                                                 F               0         ED Azimuth, (deg)
          6     2.499999809E+001                                                 F               0         ED RotSpeed, (rpm)
          7     2.424999756E+003                                                 F               0         ED GenSpeed, (rpm)
          8    -8.193517715E-005                                                 F               0         ED TTDspFA, (m)
          9     1.558048680E-004                                                 F               0         ED TTDspSS, (m)
         10     0.000000000E+000                                                 F               0         ED TTDspTwst, (deg)
         11    -6.999301910E+001                                                 T               0         ED Spn2MLxb1, (kN-m)
         12     4.114059143E+002                                                 T               0         ED Spn2MLyb1, (kN-m)
         13     1.159999313E+002                                                 T               0         ED RootFxb1, (kN)
         14    -2.997190237E+000                                                 T               0         ED RootFyb1, (kN)
         15     2.657858154E+003                                                 T               0         ED RootFzb1, (kN)
         16    -4.484541416E+000                                                 T               0         ED RootMxb1, (kN-m)
         17     2.977164062E+003                                                 T               0         ED RootMyb1, (kN-m)
         18     4.237477779E+000                                                 T               0         ED RootMzb1, (kN-m)
         19    -5.544425845E-001                                                 F               0         ED RotTorq, (kN-m)
         20    -1.924624324E+000                                                 F               0         ED LSSGagMya, (kN-m)
         21     2.079043388E+000                                                 F               0         ED LSSGagMza, (kN-m)
         22    -1.303506941E-001                                                 F               0         ED YawBrFxp, (kN)
         23     2.247626930E-001                                                 F               0         ED YawBrFyp, (kN)
         24     1.306147547E-003                                                 F               0         ED YawBrFzp, (kN)
         25    -1.226135850E+000                                                 F               0         ED YawBrMxp, (kN-m)
         26    -5.986369848E-001                                                 F               0         ED YawBrMyp, (kN-m)
         27    -2.691783667E+000                                                 F               0         ED YawBrMzp, (kN-m)
         28    -1.650533974E-001                                                 F               0         ED TwrBsFxt, (kN)
         29     2.837558985E-001                                                 F               0         ED TwrBsFyt, (kN)
         30     1.305849059E-003                                                 F               0         ED TwrBsFzt, (kN)
         31    -2.459766579E+001                                                 F               0         ED TwrBsMxt, (kN-m)
         32    -1.419753838E+001                                                 F               0         ED TwrBsMyt, (kN-m)
         33    -2.691781282E+000                                                 F               0         ED TwrBsMzt, (kN-m)


Linearized state matrices:

A: 16 x 16
     0.000000000E+000   0.000000000E+000   0.000000000E+000   0.000000000E+000   0.000000000E+000   0.000000000E+000   0.000000000E+000   0.000000000E+000   1.000000000E+000   0.000000000E+000   0.000000000E+000   0.000000000E+000   0.000000000E+000   0.000000000E+000   0.000000000E+000   0.000000000E+000
     0.000000000E+000   0.000000000E+000   0.000000000E+000   0.000000000E+000   0.000000000E+000   0.000000000E+000   0.000000000E+000   0.000000000E+000   0.000000000E+000   1.000000000E+000   0.000000000E+000   0.000000000E+000   0.000000000E+000   0.000000000E+000   0.000000000E+000   0.000000000E+000
     0.000000000E+000   0.000000000E+000   0.000000000E+000   0.000000000E+000   0.000000000E+000   0.000000000E+000   0.000000000E+000   0.000000000E+000   0.000000000E+000   0.000000000E+000   1.000000000E+000   0.000000000E+000   0.000000000E+000   0.000000000E+000   0.000000000E+000   0.000000000E+000
     0.000000000E+000   0.000000000E+000   0.000000000E+000   0.000000000E+000   0.000000000E+000   0.000000000E+000   0.000000000E+000   0.000000000E+000   0.000000000E+000   0.000000000E+000   0.000000000E+000   1.000000000E+000   0.000000000E+000   0.000000000E+000   0.000000000E+000   0.000000000E+000
     0.000000000E+000   0.000000000E+000   0.000000000E+000   0.000000000E+000   0.000000000E+000   0.000000000E+000   0.000000000E+000   0.000000000E+000   0.000000000E+000   0.000000000E+000   0.000000000E+000   0.000000000E+000   1.000000000E+000   0.000000000E+000   0.000000000E+000   0.000000000E+000
     0.000000000E+000   0.000000000E+000   0.000000000E+000   0.000000000E+000   0.000000000E+000   0.000000000E+000   0.000000000E+000   0.000000000E+000   0.000000000E+000   0.000000000E+000   0.000000000E+000   0.000000000E+000   0.000000000E+000   1.000000000E+000   0.000000000E+000   0.000000000E+000
     0.000000000E+000   0.000000000E+000   0.000000000E+000   0.000000000E+000   0.000000000E+000   0.000000000E+000   0.000000000E+000   0.000000000E+000   0.000000000E+000   0.000000000E+000   0.000000000E+000   0.000000000E+000   0.000000000E+000   0.000000000E+000   1.000000000E+000   0.000000000E+000
     0.000000000E+000   0.000000000E+000   0.000000000E+000   0.000000000E+000   0.000000000E+000   0.000000000E+000   0.000000000E+000   0.000000000E+000   0.000000000E+000   0.000000000E+000   0.000000000E+000   0.000000000E+000   0.000000000E+000   0.000000000E+000   0.000000000E+000   1.000000000E+000
    -4.707111356E+000  -6.740637340E-002   7.751012092E-002   1.141091707E-001   2.273120248E-001  -3.962400579E-001  -5.521117540E-001  -8.279413321E-001  -1.109777448E-002  -9.640897762E-003  -3.069789781E-004  -3.217309065E-004   1.494413183E-003   3.962986447E-004   3.486302163E-004  -1.725770353E-003
    -7.008602017E-002  -4.112104673E+000   1.065457890E-002  -2.255420504E-003   4.380644189E-002  -5.197761788E-002  -3.956579808E-002  -3.836150020E-001  -2.482873111E-003  -1.358204023E-002   3.313336474E-003  -4.604380755E-003  -4.163557052E-004  -4.475992276E-003   5.646686163E-003  -1.342786068E-004
     5.365285699E+000   1.200776916E+000  -2.973289890E+001  -1.289829832E-001  -2.701466417E-001   7.958110015E-001   6.378789003E-001   1.045216278E+000   7.601578454E+000   9.577667712E-001  -4.144385479E-002   1.624251592E-003  -1.583449111E-003  -4.415240757E-003  -1.939770545E-003   1.996757613E-003
     8.866727002E+000  -3.357825431E-003  -1.457021415E-001  -2.985701761E+001  -4.268986767E-001   7.449239620E-001   1.370789131E+000   1.547790981E+000  -9.367597819E+000   6.542347112E-001   6.834925567E-004  -4.042548721E-002  -2.828894298E-003  -8.886634653E-004  -5.603052220E-003   3.247337809E-003
     2.037207840E+001   3.729747276E+000  -3.434053221E-001  -4.905519813E-001  -3.065955772E+001   1.753442718E+000   2.415727159E+000   4.225422303E+000   1.850166116E+000  -6.024350083E-001  -1.446155782E-003   5.239046261E-003  -4.698149826E-002   2.033018893E-003  -6.226804093E-003   2.397680137E-003
    -7.243705205E+000  -1.029551648E+000  -7.112129625E+000   1.747079473E-001   3.589051300E-001  -1.886950191E+002  -8.566836334E-001  -1.357701678E+000  -4.119229737E+000  -7.214661779E-001   2.414395428E-002  -1.530912775E-003   2.200925595E-003  -1.159497405E-001   1.806940727E-003  -2.680178068E-003
    -1.018580302E+001  -7.241732140E-001   1.690606641E-001  -6.987109717E+000   4.975669906E-001  -8.639060068E-001  -1.892737302E+002  -1.843814709E+000   5.043835147E+000  -5.619874677E-001  -1.975095434E-004   2.249537065E-002   3.172057367E-003   2.270391845E-004  -1.140597363E-001  -3.749669568E-003
    -1.587804035E+001  -6.632795136E+000   2.762604295E-001   3.787524332E-001  -6.403624316E+000  -1.408393710E+000  -1.911226221E+000  -1.914457870E+002  -1.007745418E+000   1.058222879E-001   4.134134628E-003  -8.251896461E-003   2.823084980E-002  -5.646449524E-003   9.966027627E-003  -1.216484139E-001
B: 16 x 6
     0.000000000E+000   0.000000000E+000   0.000000000E+000   0.000000000E+000   0.000000000E+000   0.000000000E+000
     0.000000000E+000   0.000000000E+000   0.000000000E+000   0.000000000E+000   0.000000000E+000   0.000000000E+000
     0.000000000E+000   0.000000000E+000   0.000000000E+000   0.000000000E+000   0.000000000E+000   0.000000000E+000
     0.000000000E+000   0.000000000E+000   0.000000000E+000   0.000000000E+000   0.000000000E+000   0.000000000E+000
     0.000000000E+000   0.000000000E+000   0.000000000E+000   0.000000000E+000   0.000000000E+000   0.000000000E+000
     0.000000000E+000   0.000000000E+000   0.000000000E+000   0.000000000E+000   0.000000000E+000   0.000000000E+000
     0.000000000E+000   0.000000000E+000   0.000000000E+000   0.000000000E+000   0.000000000E+000   0.000000000E+000
     0.000000000E+000   0.000000000E+000   0.000000000E+000   0.000000000E+000   0.000000000E+000   0.000000000E+000
     1.198215174E-002   3.918376867E-002   6.498092732E-002   0.000000000E+000   0.000000000E+000   1.161468477E-001
    -2.092285737E-002  -1.139877584E-002   5.778333870E-002   0.000000000E+000   0.000000000E+000   2.546170549E-002
    -2.892253398E+000  -4.138656505E-002  -8.960022212E-002   0.000000000E+000   0.000000000E+000  -3.023240185E+000
    -2.323976262E-002  -2.958734809E+000  -1.206004118E-001   0.000000000E+000   0.000000000E+000  -3.102574984E+000
    -3.421131921E-002  -1.595648420E-001  -3.216245567E+000   0.000000000E+000   0.000000000E+000  -3.410021729E+000
     7.324348298E+000   5.760013175E-002   1.127915329E-001   0.000000000E+000   0.000000000E+000   7.494739963E+000
     2.295965630E-002   7.396129388E+000   1.486050486E-001   0.000000000E+000   0.000000000E+000   7.567694093E+000
     7.540352992E-003   1.135054727E-001   7.621902412E+000   0.000000000E+000   0.000000000E+000   7.742948237E+000
C: 33 x 16
     0.000000000E+000   0.000000000E+000   9.910329612E-001   0.000000000E+000   0.000000000E+000   1.012657451E+000   0.000000000E+000   0.000000000E+000   0.000000000E+000   0.000000000E+000   0.000000000E+000   0.000000000E+000   0.000000000E+000   0.000000000E+000   0.000000000E+000   0.000000000E+000
     0.000000000E+000   0.000000000E+000  -1.265685245E-001   0.000000000E+000   0.000000000E+000   4.159161788E-002   0.000000000E+000   0.000000000E+000   0.000000000E+000   0.000000000E+000   0.000000000E+000   0.000000000E+000   0.000000000E+000   0.000000000E+000   0.000000000E+000   0.000000000E+000
     0.000000000E+000   0.000000000E+000   0.000000000E+000   0.000000000E+000   0.000000000E+000   0.000000000E+000   0.000000000E+000   0.000000000E+000   0.000000000E+000   0.000000000E+000   0.000000000E+000   0.000000000E+000   0.000000000E+000   0.000000000E+000   0.000000000E+000   0.000000000E+000
     0.000000000E+000   0.000000000E+000   0.000000000E+000   0.000000000E+000   0.000000000E+000   0.000000000E+000   0.000000000E+000   0.000000000E+000   0.000000000E+000   0.000000000E+000   0.000000000E+000   0.000000000E+000   0.000000000E+000   0.000000000E+000   0.000000000E+000   0.000000000E+000
     0.000000000E+000   0.000000000E+000   0.000000000E+000   0.000000000E+000   0.000000000E+000   0.000000000E+000   0.000000000E+000   0.000000000E+000   0.000000000E+000   0.000000000E+000   0.000000000E+000   0.000000000E+000   0.000000000E+000   0.000000000E+000   0.000000000E+000   0.000000000E+000
     0.000000000E+000   0.000000000E+000   0.000000000E+000   0.000000000E+000   0.000000000E+000   0.000000000E+000   0.000000000E+000   0.000000000E+000   0.000000000E+000   0.000000000E+000   0.000000000E+000   0.000000000E+000   0.000000000E+000   0.000000000E+000   0.000000000E+000   0.000000000E+000
     0.000000000E+000   0.000000000E+000   0.000000000E+000   0.000000000E+000   0.000000000E+000   0.000000000E+000   0.000000000E+000   0.000000000E+000   0.000000000E+000   0.000000000E+000   0.000000000E+000   0.000000000E+000   0.000000000E+000   0.000000000E+000   0.000000000E+000   0.000000000E+000
     1.000000005E+000   0.000000000E+000   0.000000000E+000   0.000000000E+000   0.000000000E+000   0.000000000E+000   0.000000000E+000   0.000000000E+000   0.000000000E+000   0.000000000E+000   0.000000000E+000   0.000000000E+000   0.000000000E+000   0.000000000E+000   0.000000000E+000   0.000000000E+000
     0.000000000E+000  -1.000000005E+000   0.000000000E+000   0.000000000E+000   0.000000000E+000   0.000000000E+000   0.000000000E+000   0.000000000E+000   0.000000000E+000   0.000000000E+000   0.000000000E+000   0.000000000E+000   0.000000000E+000   0.000000000E+000   0.000000000E+000   0.000000000E+000
     0.000000000E+000   0.000000000E+000   0.000000000E+000   0.000000000E+000   0.000000000E+000   0.000000000E+000   0.000000000E+000   0.000000000E+000   0.000000000E+000   0.000000000E+000   0.000000000E+000   0.000000000E+000   0.000000000E+000   0.000000000E+000   0.000000000E+000   0.000000000E+000
    -8.415416966E+001   6.605535319E+001   2.293847177E+001   2.104471242E+000   3.404370633E+000  -7.004121548E+002  -9.356937135E+000  -8.720785532E+000  -4.492243565E+001  -6.486371907E+000  -3.599694052E+000   6.981674992E-002   3.346015273E-002   5.458820457E-001  -8.564946159E-002  -2.683209274E-002
    -1.727420366E+001  -8.258603305E-001   4.836798527E+002   4.180830980E-001   8.400755075E-001   5.005965810E+002  -2.030709641E+000  -3.090488456E+000  -6.149790159E+000  -1.227063778E+000   1.139386614E+000  -1.776959784E-003   5.330879352E-003   3.212743290E-001   2.843135655E-003  -7.107839136E-003
     4.241192004E+001   1.783583859E+000   5.413660801E+001  -1.026993907E+000  -2.059727395E+000  -2.285518566E+002   4.984016802E+000   7.565939369E+000   7.391200453E+000   1.436522916E+000   2.023779498E-001   4.211394688E-003  -1.332719838E-002  -2.411334427E-001  -4.620095439E-003   1.528185414E-002
     1.814390663E+001   1.695192165E+001  -1.022886576E+001  -4.238054638E-001  -1.040499912E+000   9.373438428E+001   2.256239156E+000   4.699780979E+000   4.749585760E+000   7.219143619E-001   2.782269229E-001   1.976923290E-002  -4.068127306E-003  -2.327706257E-001  -2.213425531E-002   7.224452122E-003
    -1.223570713E+001   5.748586711E+001  -5.322349945E-001   3.519801940E-001   2.388233950E-002  -1.620587323E+000  -9.950974791E-001   3.059213964E+000  -1.009994749E+000   4.233993796E+001   1.858273464E+000   6.425486579E-002   9.666661225E-003  -2.399606492E+000  -7.960779833E-002   0.000000000E+000
    -4.640296494E+002  -2.217916843E+000   3.225059042E+002   1.125344633E+001   2.236469368E+001  -3.116931750E+003  -5.439383848E+001  -8.121691871E+001  -1.799708096E+002  -2.644544423E+001  -1.192075803E+001  -2.662774236E-002   1.478508282E-001   7.219476635E+000   2.868679451E-002  -1.692443134E-001
     3.733786910E+002  -8.020076877E+000   1.859030306E+003  -9.064485094E+000  -1.789867620E+001  -4.869364514E+003   4.368762247E+001   6.447094410E+001   1.043448330E+002   1.885057392E+001   7.023113694E+000   1.023528836E-002  -1.205489518E-001  -5.714702666E+000  -1.137254262E-002   1.364705114E-001
     3.643461556E+000  -1.697543746E+000   3.730460523E+000  -8.911009077E-002  -1.589790389E-001   1.858205162E+001   4.129876658E-001   4.802011696E-001   1.708779251E+000   2.490524044E-001   1.294992761E-001  -1.624807603E-003  -1.170572258E-003  -4.951054198E-002   6.052769264E-003   6.641387193E-003
    -1.040177324E+003   3.093201733E+003   3.391797576E+002   3.574306272E+002   3.488696615E+002  -3.266411029E+003  -3.311992891E+003  -3.115949447E+003  -6.879242289E-001  -2.461337655E+001  -1.489280990E+001  -8.905272829E+000  -1.165487932E+001   1.102391838E+001   3.385510981E+000   7.271591533E+000
    -1.986242124E+002   1.052749613E+003   1.951661656E+003  -1.001695189E+003  -9.440941843E+002  -5.275466638E+003   2.878041897E+003   2.437674302E+003   1.543921249E+002   1.981820746E+001   1.008165797E+001  -3.467903053E+000  -6.135468418E+000  -9.586986791E+000   3.292653726E+000   6.007767758E+000
    -3.640348050E+002  -3.624433085E+002   4.389938721E+001   1.679407535E+003  -1.686920521E+003  -3.325900089E+002  -4.460909339E+003   4.617132180E+003  -1.718158286E+002   1.323690879E+001  -7.010450634E-001   9.535889202E+000  -8.918698315E+000   4.132764218E-001  -9.200164858E+000   8.799757512E+000
     1.589408626E+003   3.651992470E+000   2.771669442E+001   1.681380782E+001  -2.196398702E+001  -9.064049739E+001  -5.191406889E+001   4.732167737E+001   4.542890666E+000  -1.004728836E-001   1.473360131E-001   1.239028245E-001  -2.214005472E-001  -1.625158136E-001  -1.283013553E-001   2.364939118E-001
    -1.710776263E+001  -1.491811271E+003   8.761758893E+000   3.998315831E+000   5.439752012E+000  -6.902424251E+001  -5.507711284E+001  -4.515104325E+001   5.102579260E-001  -5.817533320E+000  -4.440032147E-001   3.282440372E-002  -2.094631952E-001   4.249286967E-001  -1.941616626E-001   1.492115213E-001
     1.971508798E+001   2.660185732E+000  -1.377688915E+001   3.424636304E+000  -5.761240132E+000   9.911923878E+001  -5.995958750E+001   2.915456252E+001   9.247468130E+000   4.849269927E-001  -1.023087789E+000  -9.210090844E-001   1.910815388E+000   1.413128136E+000   1.071608092E+000  -2.452851079E+000
    -9.991122922E+002   6.009162362E+003   4.468323171E+002   1.856038404E+002   3.730343954E+002  -3.437924609E+003  -2.738338030E+003  -3.147711537E+003   1.804413012E+001  -1.258932439E+001  -1.273658804E+001  -1.026646734E+001  -1.109765582E+001   8.834322156E+000   5.222781891E+000   6.797620829E+000
     3.651659217E+003  -3.935319286E+002  -1.270831030E+003  -5.755515878E+002   1.847861901E+003   3.740202527E+003   1.195271110E+003  -4.966069509E+003   6.906593845E+001  -2.264957628E+001  -8.849264167E+000  -7.626875762E+000   1.630610820E+001   9.928982137E+000   7.942666643E+000  -1.779478069E+001
     1.402505143E+002   2.711841202E+002   1.410808265E+003  -1.889607378E+003   3.772319298E+002  -3.359312619E+003   5.471222925E+003  -1.189343172E+003   2.259115672E+002   9.797875347E+000   1.489992107E+001  -1.382738257E+001   2.234038820E+000  -1.538728339E+001   1.575361475E+001  -2.370131172E+000
     2.037678377E+003   1.007126517E+001   2.033523457E+001   5.946904109E+000  -4.361146197E+001  -5.290572351E+001   6.649952694E-001   1.261685426E+002   5.599746965E+000   8.176525053E-001   1.765718431E-001   1.545433724E-001  -3.637201370E-001  -2.002588559E-001  -1.615034324E-001   4.008463799E-001
    -2.383736842E+001  -1.886655719E+003   9.784766857E+000   3.781761629E+000   9.646032943E+000  -7.401481741E+001  -5.887641389E+001  -8.198569814E+001   2.718820782E-001  -7.121680872E+000  -1.258595627E-001  -4.092917283E-001  -2.494354890E-001  -4.851933160E-003   3.480356210E-001   1.363087803E-001
     1.972078370E+001   2.671054777E+000  -1.377688471E+001   3.424639080E+000  -5.761317874E+000   9.911937206E+001  -5.995943201E+001   2.915491236E+001   9.245978899E+000   4.859500774E-001  -1.023086678E+000  -9.210082515E-001   1.910815666E+000   1.413127268E+000   1.071607571E+000  -2.452851079E+000