
Linearized model: Predictions were generated on 17-Jan-2026 at 06:32:31 using OpenFAST, compiled as a 64-bit application using single precision at commit v3.5.1
 linked with  NWTC Subroutine Library; ElastoDyn

Description from the FAST input file: FAST Certification Test #18: NREL 5.0 MW Baseline Wind Turbine (Onshore)

Simulation information:
   Simulation time:                   171.8063 s
   Rotor Speed:                         2.6180 rad/s
   Azimuth:                             3.6815 rad
   Wind Speed:                          0.0000 m/s
   Number of continuous states:        16
   Number of discrete states:           0
   Number of constraint states:         0
   Number of inputs:                    6
   Number of outputs:                  33
   Jacobians included in this file?    No

Order of continuous states:
   Row/Column Operating Point                                             Rotating Frame? Derivative Order Description
   ---------- ---------------                                             --------------- ---------------- -----------
          1    -3.400018904E-004                                                 F               2         ED 1st tower fore-aft bending mode DOF (internal DOF index = DOF_TFA1), m
          2     1.335381821E-004                                                 F               2         ED 1st tower side-to-side bending mode DOF (internal DOF index = DOF_TSS1), m
          3     1.035535097E+000                                                 T               2         ED 1st flapwise bending-mode DOF of blade 1 (internal DOF index = DOF_BF(1,1)), m
          4     1.034607291E+000                                                 T               2         ED 1st flapwise bending-mode DOF of blade 2 (internal DOF index = DOF_BF(2,1)), m
          5     1.034759521E+000                                                 T               2         ED 1st flapwise bending-mode DOF of blade 3 (internal DOF index = DOF_BF(3,1)), m
          6    -1.281663775E-001                                                 T               2         ED 2nd flapwise bending-mode DOF of blade 1 (internal DOF index = DOF_BF(1,2)), m
          7    -1.281089038E-001                                                 T               2         ED 2nd flapwise bending-mode DOF of blade 2 (internal DOF index = DOF_BF(2,2)), m
          8    -1.281232238E-001                                                 T               2         ED 2nd flapwise bending-mode DOF of blade 3 (internal DOF index = DOF_BF(3,2)), m
          9    -1.632052299E-004                                                 F               2         ED First time derivative of 1st tower fore-aft bending mode DOF (internal DOF index = DOF_TFA1), m/s
         10     4.894483136E-004                                                 F               2         ED First time derivative of 1st tower side-to-side bending mode DOF (internal DOF index = DOF_TSS1), m/s
         11    -7.137392531E-004                                                 T               2         ED First time derivative of 1st flapwise bending-mode DOF of blade 1 (internal DOF index = DOF_BF(1,1)), m/s
         12    -2.222413663E-003                                                 T               2         ED First time derivative of 1st flapwise bending-mode DOF of blade 2 (internal DOF index = DOF_BF(2,1)), m/s
         13     2.727477578E-003                                                 T               2         ED First time derivative of 1st flapwise bending-mode DOF of blade 3 (internal DOF index = DOF_BF(3,1)), m/s
         14     7.946413098E-005                                                 T               2         ED First time derivative of 2nd flapwise bending-mode DOF of blade 1 (internal DOF index = DOF_BF(1,2)), m/s
         15     1.249428315E-004                                                 T               2         ED First time derivative of 2nd flapwise bending-mode DOF of blade 2 (internal DOF index = DOF_BF(2,2)), m/s
         16    -1.915116882E-004                                                 T               2         ED First time derivative of 2nd flapwise bending-mode DOF of blade 3 (internal DOF index = DOF_BF(3,2)), m/s

Order of continuous state derivatives:
   Row/Column Operating Point                                             Rotating Frame? Derivative Order Description
   ---------- ---------------                                             --------------- ---------------- -----------
          1    -1.632052299E-004                                                 F               2         First time derivative of ED 1st tower fore-aft bending mode DOF (internal DOF index = DOF_TFA1), m/s
          2     4.894483136E-004                                                 F               2         First time derivative of ED 1st tower side-to-side bending mode DOF (internal DOF index = DOF_TSS1), m/s
          3    -7.137392531E-004                                                 T               2         First time derivative of ED 1st flapwise bending-mode DOF of blade 1 (internal DOF index = DOF_BF(1,1)), m/s
          4    -2.222413663E-003                                                 T               2         First time derivative of ED 1st flapwise bending-mode DOF of blade 2 (internal DOF index = DOF_BF(2,1)), m/s
          5     2.727477578E-003                                                 T               2         First time derivative of ED 1st flapwise bending-mode DOF of blade 3 (internal DOF index = DOF_BF(3,1)), m/s
          6     7.946413098E-005                                                 T               2         First time derivative of ED 2nd flapwise bending-mode DOF of blade 1 (internal DOF index = DOF_BF(1,2)), m/s
          7     1.249428315E-004                                                 T               2         First time derivative of ED 2nd flapwise bending-mode DOF of blade 2 (internal DOF index = DOF_BF(2,2)), m/s
          8    -1.915116882E-004                                                 T               2         First time derivative of ED 2nd flapwise bending-mode DOF of blade 3 (internal DOF index = DOF_BF(3,2)), m/s
          9     1.422197325E-003                                                 F               2         First time derivative of ED First time derivative of 1st tower fore-aft bending mode DOF (internal DOF index = DOF_TFA1), m/s/s
         10    -5.701059708E-004                                                 F               2         First time derivative of ED First time derivative of 1st tower side-to-side bending mode DOF (internal DOF index = DOF_TSS1), m/s/s
         11    -1.291461475E-002                                                 T               2         First time derivative of ED First time derivative of 1st flapwise bending-mode DOF of blade 1 (internal DOF index = DOF_BF(1,1)), m/s/s
         12     9.969485924E-003                                                 T               2         First time derivative of ED First time derivative of 1st flapwise bending-mode DOF of blade 2 (internal DOF index = DOF_BF(2,1)), m/s/s
         13     4.453595262E-003                                                 T               2         First time derivative of ED First time derivative of 1st flapwise bending-mode DOF of blade 3 (internal DOF index = DOF_BF(3,1)), m/s/s
         14     7.606859435E-004                                                 T               2         First time derivative of ED First time derivative of 2nd flapwise bending-mode DOF of blade 1 (internal DOF index = DOF_BF(1,2)), m/s/s
         15    -8.611865342E-004                                                 T               2         First time derivative of ED First time derivative of 2nd flapwise bending-mode DOF of blade 2 (internal DOF index = DOF_BF(2,2)), m/s/s
         16    -2.084253792E-004                                                 T               2         First time derivative of ED First time derivative of 2nd flapwise bending-mode DOF of blade 3 (internal DOF index = DOF_BF(3,2)), m/s/s

Order of inputs:
     Column   Operating Point                                             Rotating Frame? Derivative Order Description
   ---------- ---------------                                             --------------- ---------------- -----------
          1     0.000000000E+000                                                 T               0         ED Blade 1 pitch command, rad
          2     0.000000000E+000                                                 T               0         ED Blade 2 pitch command, rad
          3     0.000000000E+000                                                 T               0         ED Blade 3 pitch command, rad
          4     0.000000000E+000                                                 F               0         ED Yaw moment, Nm
          5     0.000000000E+000                                                 F               0         ED Generator torque, Nm
          6     0.000000000E+000                                                 F               0         ED Extended input: collective blade-pitch command, rad

Order of outputs:
        Row   Operating Point                                             Rotating Frame? Derivative Order Description
   ---------- ---------------                                             --------------- ---------------- -----------
          1     8.964607716E-001                                                 T               0         ED OoPDefl1, (m)
          2    -1.363967806E-001                                                 T               0         ED IPDefl1, (m)
          3     0.000000000E+000                                                 T               0         ED TwstDefl1, (deg)
          4     0.000000000E+000                                                 T               0         ED BldPitch1, (deg)
          5     2.109370422E+002                                                 F               0         ED Azimuth, (deg)
          6     2.499999809E+001                                                 F               0         ED RotSpeed, (rpm)
          7     2.424999756E+003                                                 F               0         ED GenSpeed, (rpm)
          8    -3.400018904E-004                                                 F               0         ED TTDspFA, (m)
          9    -1.335381821E-004                                                 F               0         ED TTDspSS, (m)
         10     0.000000000E+000                                                 F               0         ED TTDspTwst, (deg)
         11    -6.994751740E+001                                                 T               0         ED Spn2MLxb1, (kN-m)
         12     4.118386536E+002                                                 T               0         ED Spn2MLyb1, (kN-m)
         13     1.160613937E+002                                                 T               0         ED RootFxb1, (kN)
         14    -2.999706745E+000                                                 T               0         ED RootFyb1, (kN)
         15     2.657859619E+003                                                 T               0         ED RootFzb1, (kN)
         16    -4.195043087E+000                                                 T               0         ED RootMxb1, (kN-m)
         17     2.979207764E+003                                                 T               0         ED RootMyb1, (kN-m)
         18     4.240655899E+000                                                 T               0         ED RootMzb1, (kN-m)
         19     3.640333116E-001                                                 F               0         ED RotTorq, (kN-m)
         20     2.038851738E+000                                                 F               0         ED LSSGagMya, (kN-m)
         21    -4.904554486E-001                                                 F               0         ED LSSGagMza, (kN-m)
         22    -5.175390244E-001                                                 F               0         ED YawBrFxp, (kN)
         23    -2.036260068E-001                                                 F               0         ED YawBrFyp, (kN)
         24    -2.845210489E-003                                                 F               0         ED YawBrFzp, (kN)
         25     6.941463351E-001                                                 F               0         ED YawBrMxp, (kN-m)
         26    -3.055263281E+000                                                 F               0         ED YawBrMyp, (kN-m)
         27    -7.354220152E-001                                                 F               0         ED YawBrMzp, (kN-m)
         28    -6.528679132E-001                                                 F               0         ED TwrBsFxt, (kN)
         29    -2.580346763E-001                                                 F               0         ED TwrBsFyt, (kN)
         30    -2.849353245E-003                                                 F               0         ED TwrBsFzt, (kN)
         31     2.192605972E+001                                                 F               0         ED TwrBsMxt, (kN-m)
         32    -5.689861679E+001                                                 F               0         ED TwrBsMyt, (kN-m)
         33    -7.354258299E-001                                                 F               0         ED TwrBsMzt, (kN-m)


Linearized state matrices:

A: 16 x 16
     0.000000000E+000   0.000000000E+000   0.000000000E+000   0.000000000E+000   0.000000000E+000   0.000000000E+000   0.000000000E+000   0.000000000E+000   1.000000000E+000   0.000000000E+000   0.000000000E+000   0.000000000E+000   0.000000000E+000   0.000000000E+000   0.000000000E+000   0.000000000E+000
     0.000000000E+000   0.000000000E+000   0.000000000E+000   0.000000000E+000   0.000000000E+000   0.000000000E+000   0.000000000E+000   0.000000000E+000   0.000000000E+000   1.000000000E+000   0.000000000E+000   0.000000000E+000   0.000000000E+000   0.000000000E+000   0.000000000E+000   0.000000000E+000
     0.000000000E+000   0.000000000E+000   0.000000000E+000   0.000000000E+000   0.000000000E+000   0.000000000E+000   0.000000000E+000   0.000000000E+000   0.000000000E+000   0.000000000E+000   1.000000000E+000   0.000000000E+000   0.000000000E+000   0.000000000E+000   0.000000000E+000   0.000000000E+000
     0.000000000E+000   0.000000000E+000   0.000000000E+000   0.000000000E+000   0.000000000E+000   0.000000000E+000   0.000000000E+000   0.000000000E+000   0.000000000E+000   0.000000000E+000   0.000000000E+000   1.000000000E+000   0.000000000E+000   0.000000000E+000   0.000000000E+000   0.000000000E+000
     0.000000000E+000   0.000000000E+000   0.000000000E+000   0.000000000E+000   0.000000000E+000   0.000000000E+000   0.000000000E+000   0.000000000E+000   0.000000000E+000   0.000000000E+000   0.000000000E+000   0.000000000E+000   1.000000000E+000   0.000000000E+000   0.000000000E+000   0.000000000E+000
     0.000000000E+000   0.000000000E+000   0.000000000E+000   0.000000000E+000   0.000000000E+000   0.000000000E+000   0.000000000E+000   0.000000000E+000   0.000000000E+000   0.000000000E+000   0.000000000E+000   0.000000000E+000   0.000000000E+000   1.000000000E+000   0.000000000E+000   0.000000000E+000
     0.000000000E+000   0.000000000E+000   0.000000000E+000   0.000000000E+000   0.000000000E+000   0.000000000E+000   0.000000000E+000   0.000000000E+000   0.000000000E+000   0.000000000E+000   0.000000000E+000   0.000000000E+000   0.000000000E+000   0.000000000E+000   1.000000000E+000   0.000000000E+000
     0.000000000E+000   0.000000000E+000   0.000000000E+000   0.000000000E+000   0.000000000E+000   0.000000000E+000   0.000000000E+000   0.000000000E+000   0.000000000E+000   0.000000000E+000   0.000000000E+000   0.000000000E+000   0.000000000E+000   0.000000000E+000   0.000000000E+000   1.000000000E+000
    -4.707106409E+000  -6.740782717E-002   6.503850875E-002   2.208171764E-001   1.330757889E-001  -4.030729662E-001  -8.314954860E-001  -5.417246984E-001  -1.109537678E-002  -9.643150307E-003  -8.427137258E-004   1.215158709E-003   4.934717641E-004   9.734215716E-004  -1.429967089E-003  -5.267235610E-004
    -7.006585402E-002  -4.112095273E+000  -9.939354526E-003   3.308243922E-002   2.905765750E-002   5.493307457E-002  -3.279448172E-001  -2.021344679E-001  -2.491402927E-003  -1.355469568E-002  -2.321059450E-003  -3.350056942E-003   3.962887476E-003   2.858488173E-003   3.687799775E-003  -5.477768378E-003
     3.975836603E+000  -5.561867222E-001  -2.969849479E+001  -1.820657800E-001  -1.083619980E-001   6.812526327E-001   6.552452727E-001   4.286151598E-001  -5.128412916E+000   1.153499484E+000  -4.051783322E-002  -1.528679805E-003   1.731175954E-004  -5.601928073E-003   1.760961005E-003  -3.708839049E-004
     1.964839058E+001   2.814862289E+000  -2.647641893E-001  -3.058205278E+001  -5.721759712E-001   1.644970804E+000   3.996911548E+000   2.380884292E+000  -4.778586121E+000  -5.003005727E-001   4.940330891E-003  -4.387960908E-002  -4.497509404E-003  -5.815932975E-003  -1.511509746E-003   5.569565670E-003
     1.097971219E+001   2.668446670E+000  -1.450447616E-001  -5.332728950E-001  -2.996893313E+001   9.029793018E-001   2.132283944E+000   1.713763164E+000   9.991110975E+000   3.564522938E-001   3.375794329E-003  -7.771027477E-004  -4.445519742E-002  -4.007767089E-003   1.069904813E-003  -6.129553079E-004
    -7.231277538E+000   8.578845204E-001  -7.130955005E+000   3.322630935E-001   1.981058315E-001  -1.887078626E+002  -1.203586953E+000  -7.868397416E-001   2.753027140E+000  -8.265029426E-001   2.309394588E-002   2.654498497E-003  -1.669816264E-004  -1.148441763E-001  -3.064234272E-003   4.700667623E-004
    -1.587152767E+001  -5.650025845E+000   2.049121695E-001  -6.449561680E+000   4.844266534E-001  -1.278725397E+000  -1.912946615E+002  -2.082601568E+000   2.570831167E+000   5.114490748E-002  -5.886560481E-003   2.353180938E-002   6.881491070E-003   7.033619149E-003  -1.154850987E-001  -8.991170675E-003
    -1.020440866E+001  -3.594556316E+000   1.318457121E-001   5.036949839E-001  -6.922396941E+000  -8.226984279E-001  -2.067270850E+000  -1.894121596E+002  -5.406904199E+000  -4.022856134E-001  -3.763275812E-003  -1.908976276E-004   2.824559747E-002   4.495796613E-003   1.120228666E-005  -1.213507107E-001
B: 16 x 6
     0.000000000E+000   0.000000000E+000   0.000000000E+000   0.000000000E+000   0.000000000E+000   0.000000000E+000
     0.000000000E+000   0.000000000E+000   0.000000000E+000   0.000000000E+000   0.000000000E+000   0.000000000E+000
     0.000000000E+000   0.000000000E+000   0.000000000E+000   0.000000000E+000   0.000000000E+000   0.000000000E+000
     0.000000000E+000   0.000000000E+000   0.000000000E+000   0.000000000E+000   0.000000000E+000   0.000000000E+000
     0.000000000E+000   0.000000000E+000   0.000000000E+000   0.000000000E+000   0.000000000E+000   0.000000000E+000
     0.000000000E+000   0.000000000E+000   0.000000000E+000   0.000000000E+000   0.000000000E+000   0.000000000E+000
     0.000000000E+000   0.000000000E+000   0.000000000E+000   0.000000000E+000   0.000000000E+000   0.000000000E+000
     0.000000000E+000   0.000000000E+000   0.000000000E+000   0.000000000E+000   0.000000000E+000   0.000000000E+000
     1.966566462E-002   6.892408272E-002   2.747909083E-002   0.000000000E+000   0.000000000E+000   1.160688382E-001
    -3.575325017E-002   5.006845954E-002   1.110999498E-002   0.000000000E+000   0.000000000E+000   2.542520435E-002
    -2.905363731E+000  -5.090145416E-002  -2.161382357E-002   0.000000000E+000   0.000000000E+000  -2.977879009E+000
    -5.987541350E-002  -3.200456774E+000  -1.212987599E-001   0.000000000E+000   0.000000000E+000  -3.381630947E+000
    -2.385387612E-002  -1.907271278E-001  -2.952754083E+000   0.000000000E+000   0.000000000E+000  -3.167335087E+000
     7.350632580E+000   9.441538674E-002   3.971224690E-002   0.000000000E+000   0.000000000E+000   7.484760213E+000
     1.876290008E-002   7.606994148E+000   1.067703852E-001   0.000000000E+000   0.000000000E+000   7.732527433E+000
     1.239718346E-002   1.905551882E-001   7.377895241E+000   0.000000000E+000   0.000000000E+000   7.580847613E+000
C: 33 x 16
     0.000000000E+000   0.000000000E+000   9.910331000E-001   0.000000000E+000   0.000000000E+000   1.012657451E+000   0.000000000E+000   0.000000000E+000   0.000000000E+000   0.000000000E+000   0.000000000E+000   0.000000000E+000   0.000000000E+000   0.000000000E+000   0.000000000E+000   0.000000000E+000
     0.000000000E+000   0.000000000E+000  -1.265685245E-001   0.000000000E+000   0.000000000E+000   4.159161788E-002   0.000000000E+000   0.000000000E+000   0.000000000E+000   0.000000000E+000   0.000000000E+000   0.000000000E+000   0.000000000E+000   0.000000000E+000   0.000000000E+000   0.000000000E+000
     0.000000000E+000   0.000000000E+000   0.000000000E+000   0.000000000E+000   0.000000000E+000   0.000000000E+000   0.000000000E+000   0.000000000E+000   0.000000000E+000   0.000000000E+000   0.000000000E+000   0.000000000E+000   0.000000000E+000   0.000000000E+000   0.000000000E+000   0.000000000E+000
     0.000000000E+000   0.000000000E+000   0.000000000E+000   0.000000000E+000   0.000000000E+000   0.000000000E+000   0.000000000E+000   0.000000000E+000   0.000000000E+000   0.000000000E+000   0.000000000E+000   0.000000000E+000   0.000000000E+000   0.000000000E+000   0.000000000E+000   0.000000000E+000
     0.000000000E+000   0.000000000E+000   0.000000000E+000   0.000000000E+000   0.000000000E+000   0.000000000E+000   0.000000000E+000   0.000000000E+000   0.000000000E+000   0.000000000E+000   0.000000000E+000   0.000000000E+000   0.000000000E+000   0.000000000E+000   0.000000000E+000   0.000000000E+000
     0.000000000E+000   0.000000000E+000   0.000000000E+000   0.000000000E+000   0.000000000E+000   0.000000000E+000   0.000000000E+000   0.000000000E+000   0.000000000E+000   0.000000000E+000   0.000000000E+000   0.000000000E+000   0.000000000E+000   0.000000000E+000   0.000000000E+000   0.000000000E+000
     0.000000000E+000   0.000000000E+000   0.000000000E+000   0.000000000E+000   0.000000000E+000   0.000000000E+000   0.000000000E+000   0.000000000E+000   0.000000000E+000   0.000000000E+000   0.000000000E+000   0.000000000E+000   0.000000000E+000   0.000000000E+000   0.000000000E+000   0.000000000E+000
     1.000000005E+000   0.000000000E+000   0.000000000E+000   0.000000000E+000   0.000000000E+000   0.000000000E+000   0.000000000E+000   0.000000000E+000   0.000000000E+000   0.000000000E+000   0.000000000E+000   0.000000000E+000   0.000000000E+000   0.000000000E+000   0.000000000E+000   0.000000000E+000
     0.000000000E+000  -1.000000005E+000   0.000000000E+000   0.000000000E+000   0.000000000E+000   0.000000000E+000   0.000000000E+000   0.000000000E+000   0.000000000E+000   0.000000000E+000   0.000000000E+000   0.000000000E+000   0.000000000E+000   0.000000000E+000   0.000000000E+000   0.000000000E+000
     0.000000000E+000   0.000000000E+000   0.000000000E+000   0.000000000E+000   0.000000000E+000   0.000000000E+000   0.000000000E+000   0.000000000E+000   0.000000000E+000   0.000000000E+000   0.000000000E+000   0.000000000E+000   0.000000000E+000   0.000000000E+000   0.000000000E+000   0.000000000E+000
    -1.045199852E+001   3.230922801E+001   2.193287246E+001   2.553491210E-001   8.248647318E-002  -6.954534596E+002   6.279775877E-001   3.251836405E-001   3.028911376E+001  -7.650685270E+000  -3.523320321E+000   3.015500754E-002  -3.027939472E-002   4.486823455E-001  -3.038601231E-002   4.495708254E-002
    -1.829817067E+001   3.360328378E+000   4.836553307E+002   8.322568845E-001   4.934972712E-001   5.004323899E+002  -2.955439513E+000  -1.933332245E+000   4.077404689E+000  -1.381756650E+000   1.138746908E+000   7.605387876E-003  -1.492646219E-003   3.198527611E-001  -9.950974791E-003   4.264703482E-003
     3.805120285E+001  -1.509503021E-001   5.431005705E+001  -1.780016155E+000  -1.071044740E+000  -2.288669116E+002   6.668041590E+000   4.345732848E+000  -4.828787887E+000   1.620033573E+000   2.069091973E-001  -1.035967554E-002  -3.198527611E-003  -2.453981462E-001   1.261641447E-002   2.843135655E-003
    -3.027111044E+000   3.110461965E+001  -9.768096753E+000  -8.386528291E-002  -1.190979530E-001   9.129301923E+001   1.851836427E+000   1.119418028E+000  -3.172049844E+000   8.532590578E-001   3.082442160E-001   2.678267105E-002  -2.916268656E-002  -2.690761353E-001  -2.583255286E-002   3.924304623E-002
    -1.707010887E+001  -3.917821527E+001  -4.702546373E-001   1.082666057E+000   7.397838973E-001  -2.120979198E+000  -6.004702502E+000  -3.804115506E+000   6.267556345E-001   4.198464336E+001   1.879881295E+000  -2.729410228E-002   3.923527203E-002  -2.428037849E+000   3.411762785E-002  -5.117644178E-002
    -1.240864503E+000  -2.668651638E+002   3.141669874E+002   1.992543877E+000   1.792740298E+000  -3.074047669E+003  -2.070293086E+001  -1.274129032E+001   1.208538839E+002  -3.118494064E+001  -1.203219674E+001  -2.182573067E-001   2.568839700E-001   7.390031456E+000   2.402449628E-001  -3.548477629E-001
     2.708861805E+002   8.543038585E+000   1.861417403E+003  -1.274065949E+001  -7.688976064E+000  -4.877512941E+003   4.820820816E+001   3.139959017E+001  -6.922256498E+001   2.149731906E+001   7.037897999E+000  -6.709800145E-002  -3.411762785E-002  -5.754506565E+000   7.392152702E-002   3.980389916E-002
     3.557936046E-001  -6.099608540E-002   3.782641502E+000  -1.594932466E-002  -9.910993196E-003   1.835340687E+001   6.162718651E-002   3.800472738E-002  -1.152633428E+000   2.973003625E-001   1.279666482E-001   6.852401167E-004   6.385949224E-004  -4.570118445E-002   1.032857874E-003   4.497929453E-003
    -1.040193666E+003   3.093224937E+003   3.518362603E+002   3.554762558E+002   3.381755621E+002  -3.348801902E+003  -3.158831041E+003  -3.186662495E+003  -6.732911722E-001  -2.458766783E+001  -1.075383188E+001  -9.506682647E+000  -1.519854249E+001   5.643125198E+000   4.411794104E+000   1.159193607E+001
    -3.915488346E+002  -1.861275858E+002   1.955758899E+003  -9.878490469E+002  -9.310456132E+002  -5.301430508E+003   2.810279313E+003   2.323677889E+003  -1.444038931E+002   1.630027013E+001   1.077254326E+001  -4.680927436E+000  -6.093954750E+000  -1.057874692E+001   4.772714072E+000   5.758513054E+000
     1.366863562E+002  -1.097709848E+003   3.227421422E+001   1.672494735E+003  -1.704626290E+003  -2.699104623E+002  -4.475744466E+003   4.677221852E+003  -1.803042413E+002  -1.741681505E+001  -1.559531818E+000   9.025423075E+000  -7.949311778E+000   1.500657808E+000  -8.685805801E+000   7.483810509E+000
     1.589407503E+003   3.651799006E+000   3.290091684E+001  -1.926436531E+001   8.929850404E+000  -9.786668204E+001   4.355781555E+001  -4.092550230E+001   4.541732321E+000  -9.988274670E-002   2.345712552E-001  -1.758036551E-001  -8.852452699E-003  -2.498447104E-001   1.915895827E-001   3.534484070E-003
    -1.710833766E+001  -1.491811147E+003   5.684479356E+000   3.837662285E+000   8.678041320E+000  -6.412543648E+001  -4.259966218E+001  -6.252670577E+001   5.109686731E-001  -5.818341774E+000  -1.075889455E-001  -3.443276057E-002  -4.787067187E-001  -2.039547240E-002  -8.397349698E-002   4.820912718E-001
     1.972203902E+001   2.674707681E+000  -1.506618953E+000   6.280004244E-001  -1.523265679E+001  -1.555169382E+001  -3.054198495E+001   1.144311791E+002   9.266476289E+000   4.788364543E-001  -1.788658565E+000   1.510182313E+000   2.443285691E-001   2.249258342E+000  -2.024628933E+000  -1.938049258E-001
    -9.991250793E+002   6.009184319E+003   2.465636186E+002   2.687627862E+002   4.901496212E+002  -2.928523370E+003  -2.882429389E+003  -3.512962777E+003   1.805655077E+001  -1.255773574E+001  -1.111779322E+001  -1.026137524E+001  -1.272778986E+001   6.372708097E+000   5.461430366E+000   8.995035675E+000
     3.651726334E+003  -3.934830881E+002  -1.587064479E+003   1.683183361E+003  -9.463499636E+001   4.110471902E+003  -4.773192607E+003   6.322144818E+002   6.913734355E+001  -2.268792787E+001  -1.511959995E+001   1.303098585E+001   1.915055103E+000   1.632481848E+001  -1.450888774E+001  -1.724733825E+000
     1.402768838E+002   2.711841514E+002  -1.089809933E+003  -9.249269720E+002   1.913150247E+003   3.504320356E+003   2.384761237E+003  -4.966505219E+003   2.259025226E+002   9.842250136E+000  -5.798565727E+000  -8.542608664E+000   1.764441991E+001   7.259055637E+000   9.435666171E+000  -1.865354510E+001
     2.037676631E+003   1.007119792E+001   2.670715025E+001  -4.029333608E+001  -3.743190496E+000  -5.948093561E+001   1.227433749E+002   1.066354816E+001   5.598316212E+000   8.184560856E-001   3.148363204E-001  -2.915355187E-001  -5.584859659E-002  -3.425575871E-001   3.277810559E-001   5.369472698E-002
    -2.383612479E+001  -1.886654721E+003   4.730105908E+000   7.014239446E+000   1.146820525E+001  -5.885072017E+001  -7.408886665E+001  -8.193600435E+001   2.717178535E-001  -7.119866115E+000  -3.304523262E-001  -3.561094390E-001  -9.819059821E-002   2.540705429E-001   2.701339817E-001  -4.388465954E-002
     1.974479852E+001   2.665171195E+000  -1.506420989E+000   6.278143295E-001  -1.523262125E+001  -1.555233519E+001  -3.054157403E+001   1.144309125E+002   9.266161485E+000   4.798437622E-001  -1.788657455E+000   1.510180092E+000   2.443275453E-001   2.249256606E+000  -2.024627025E+000  -1.938041449E-001