
FAST Summary File

Predictions were generated on 17-Jan-2026 at 06:32:31 using OpenFAST, compiled as a 64-bit application using single precision at commit v3.5.1
  compiled with
    NWTC Subroutine Library
    ElastoDyn
    BeamDyn (unknown version, unknown date) [not called]
    InflowWind (unknown version, unknown date) [not called]
    AeroDyn14 (unknown version, unknown date) [not called]
    AeroDyn (unknown version, unknown date) [not called]
    ServoDyn (unknown version, unknown date) [not called]
    HydroDyn (unknown version, unknown date) [not called]
    SubDyn (unknown version, unknown date) [not called]
    ExtPtfm_MCKF (unknown version, unknown date) [not called]
    MAP (unknown version, unknown date) [not called]
    FEAMooring (unknown version, unknown date) [not called]
    MoorDyn (unknown version, unknown date) [not called]
    OrcaFlexInterface (unknown version, unknown date) [not called]
    IceFloe (unknown version, unknown date) [not called]
    IceDyn (unknown version, unknown date) [not called]


Modeling a land-based turbine
Description from the FAST input file: 
  FAST Certification Test #18: NREL 5.0 MW Baseline Wind Turbine (Onshore)

Interpolation order for input/output time histories: 2 (quadratic)
Number of correction iterations:  0


   Requested Time Steps  
  -------------------------------------------------
  Component          Time Step (s)    Subcycles (-)
  -----------------  ---------------  -------------
  FAST (glue code)     6.250000000E-003
  ElastoDyn            6.250000000E-00       1
  FAST output files    6.250000000E-00       1


   Requested Visualization Output
  -------------------------------------------------
         Frame rate    4.166666667E- fps


   Requested Channels in FAST Output File(s)  
  --------------------------------------------
  Number  Name                  Units                 Generated by
  ------  --------------------  --------------------  ------------
       1  Time                  (s)                   OpenFAST
       2  OoPDefl1              (m)                   ElastoDyn
       3  IPDefl1               (m)                   ElastoDyn
       4  TwstDefl1             (deg)                 ElastoDyn
       5  BldPitch1             (deg)                 ElastoDyn
       6  Azimuth               (deg)                 ElastoDyn
       7  RotSpeed              (rpm)                 ElastoDyn
       8  GenSpeed              (rpm)                 ElastoDyn
       9  TTDspFA               (m)                   ElastoDyn
      10  TTDspSS               (m)                   ElastoDyn
      11  TTDspTwst             (deg)                 ElastoDyn
      12  Spn2MLxb1             (kN-m)                ElastoDyn
      13  Spn2MLyb1             (kN-m)                ElastoDyn
      14  RootFxb1              (kN)                  ElastoDyn
      15  RootFyb1              (kN)                  ElastoDyn
      16  RootFzb1              (kN)                  ElastoDyn
      17  RootMxb1              (kN-m)                ElastoDyn
      18  RootMyb1              (kN-m)                ElastoDyn
      19  RootMzb1              (kN-m)                ElastoDyn
      20  RotTorq               (kN-m)                ElastoDyn
      21  LSSGagMya             (kN-m)                ElastoDyn
      22  LSSGagMza             (kN-m)                ElastoDyn
      23  YawBrFxp              (kN)                  ElastoDyn
      24  YawBrFyp              (kN)                  ElastoDyn
      25  YawBrFzp              (kN)                  ElastoDyn
      26  YawBrMxp              (kN-m)                ElastoDyn
      27  YawBrMyp              (kN-m)                ElastoDyn
      28  YawBrMzp              (kN-m)                ElastoDyn
      29  TwrBsFxt              (kN)                  ElastoDyn
      30  TwrBsFyt              (kN)                  ElastoDyn
      31  TwrBsFzt              (kN)                  ElastoDyn
      32  TwrBsMxt              (kN-m)                ElastoDyn
      33  TwrBsMyt              (kN-m)                ElastoDyn
      34  TwrBsMzt              (kN-m)                ElastoDyn
