
Linearized model: Predictions were generated on 17-Jan-2026 at 06:32:31 using OpenFAST, compiled as a 64-bit application using single precision at commit v3.5.1
 linked with  NWTC Subroutine Library; ElastoDyn

Description from the FAST input file: FAST Certification Test #18: NREL 5.0 MW Baseline Wind Turbine (Onshore)

Simulation information:
   Simulation time:                   172.2688 s
   Rotor Speed:                         2.6180 rad/s
   Azimuth:                             4.8924 rad
   Wind Speed:                          0.0000 m/s
   Number of continuous states:        16
   Number of discrete states:           0
   Number of constraint states:         0
   Number of inputs:                    6
   Number of outputs:                  33
   Jacobians included in this file?    No

Order of continuous states:
   Row/Column Operating Point                                             Rotating Frame? Derivative Order Description
   ---------- ---------------                                             --------------- ---------------- -----------
          1    -2.645137138E-004                                                 F               2         ED 1st tower fore-aft bending mode DOF (internal DOF index = DOF_TFA1), m
          2     2.723062062E-004                                                 F               2         ED 1st tower side-to-side bending mode DOF (internal DOF index = DOF_TSS1), m
          3     1.034495950E+000                                                 T               2         ED 1st flapwise bending-mode DOF of blade 1 (internal DOF index = DOF_BF(1,1)), m
          4     1.034915924E+000                                                 T               2         ED 1st flapwise bending-mode DOF of blade 2 (internal DOF index = DOF_BF(2,1)), m
          5     1.035555482E+000                                                 T               2         ED 1st flapwise bending-mode DOF of blade 3 (internal DOF index = DOF_BF(3,1)), m
          6    -1.280995011E-001                                                 T               2         ED 2nd flapwise bending-mode DOF of blade 1 (internal DOF index = DOF_BF(1,2)), m
          7    -1.281472594E-001                                                 T               2         ED 2nd flapwise bending-mode DOF of blade 2 (internal DOF index = DOF_BF(2,2)), m
          8    -1.281709969E-001                                                 T               2         ED 2nd flapwise bending-mode DOF of blade 3 (internal DOF index = DOF_BF(3,2)), m
          9     4.630258481E-004                                                 F               2         ED First time derivative of 1st tower fore-aft bending mode DOF (internal DOF index = DOF_TFA1), m/s
         10     6.811294588E-005                                                 F               2         ED First time derivative of 1st tower side-to-side bending mode DOF (internal DOF index = DOF_TSS1), m/s
         11    -1.824664301E-003                                                 T               2         ED First time derivative of 1st flapwise bending-mode DOF of blade 1 (internal DOF index = DOF_BF(1,1)), m/s
         12     3.012899775E-003                                                 T               2         ED First time derivative of 1st flapwise bending-mode DOF of blade 2 (internal DOF index = DOF_BF(2,1)), m/s
         13    -7.206092123E-004                                                 T               2         ED First time derivative of 1st flapwise bending-mode DOF of blade 3 (internal DOF index = DOF_BF(3,1)), m/s
         14     7.349338557E-005                                                 T               2         ED First time derivative of 2nd flapwise bending-mode DOF of blade 1 (internal DOF index = DOF_BF(1,2)), m/s
         15    -2.297982719E-004                                                 T               2         ED First time derivative of 2nd flapwise bending-mode DOF of blade 2 (internal DOF index = DOF_BF(2,2)), m/s
         16     6.389179180E-005                                                 T               2         ED First time derivative of 2nd flapwise bending-mode DOF of blade 3 (internal DOF index = DOF_BF(3,2)), m/s

Order of continuous state derivatives:
   Row/Column Operating Point                                             Rotating Frame? Derivative Order Description
   ---------- ---------------                                             --------------- ---------------- -----------
          1     4.630258481E-004                                                 F               2         First time derivative of ED 1st tower fore-aft bending mode DOF (internal DOF index = DOF_TFA1), m/s
          2     6.811294588E-005                                                 F               2         First time derivative of ED 1st tower side-to-side bending mode DOF (internal DOF index = DOF_TSS1), m/s
          3    -1.824664301E-003                                                 T               2         First time derivative of ED 1st flapwise bending-mode DOF of blade 1 (internal DOF index = DOF_BF(1,1)), m/s
          4     3.012899775E-003                                                 T               2         First time derivative of ED 1st flapwise bending-mode DOF of blade 2 (internal DOF index = DOF_BF(2,1)), m/s
          5    -7.206092123E-004                                                 T               2         First time derivative of ED 1st flapwise bending-mode DOF of blade 3 (internal DOF index = DOF_BF(3,1)), m/s
          6     7.349338557E-005                                                 T               2         First time derivative of ED 2nd flapwise bending-mode DOF of blade 1 (internal DOF index = DOF_BF(1,2)), m/s
          7    -2.297982719E-004                                                 T               2         First time derivative of ED 2nd flapwise bending-mode DOF of blade 2 (internal DOF index = DOF_BF(2,2)), m/s
          8     6.389179180E-005                                                 T               2         First time derivative of ED 2nd flapwise bending-mode DOF of blade 3 (internal DOF index = DOF_BF(3,2)), m/s
          9     1.082538161E-003                                                 F               2         First time derivative of ED First time derivative of 1st tower fore-aft bending mode DOF (internal DOF index = DOF_TFA1), m/s/s
         10    -1.113643986E-003                                                 F               2         First time derivative of ED First time derivative of 1st tower side-to-side bending mode DOF (internal DOF index = DOF_TSS1), m/s/s
         11     1.040245220E-002                                                 T               2         First time derivative of ED First time derivative of 1st flapwise bending-mode DOF of blade 1 (internal DOF index = DOF_BF(1,1)), m/s/s
         12     3.489597701E-003                                                 T               2         First time derivative of ED First time derivative of 1st flapwise bending-mode DOF of blade 2 (internal DOF index = DOF_BF(2,1)), m/s/s
         13    -1.268678438E-002                                                 T               2         First time derivative of ED First time derivative of 1st flapwise bending-mode DOF of blade 3 (internal DOF index = DOF_BF(3,1)), m/s/s
         14    -8.569170022E-004                                                 T               2         First time derivative of ED First time derivative of 2nd flapwise bending-mode DOF of blade 1 (internal DOF index = DOF_BF(1,2)), m/s/s
         15    -1.201982741E-004                                                 T               2         First time derivative of ED First time derivative of 2nd flapwise bending-mode DOF of blade 2 (internal DOF index = DOF_BF(2,2)), m/s/s
         16     7.552858442E-004                                                 T               2         First time derivative of ED First time derivative of 2nd flapwise bending-mode DOF of blade 3 (internal DOF index = DOF_BF(3,2)), m/s/s

Order of inputs:
     Column   Operating Point                                             Rotating Frame? Derivative Order Description
   ---------- ---------------                                             --------------- ---------------- -----------
          1     0.000000000E+000                                                 T               0         ED Blade 1 pitch command, rad
          2     0.000000000E+000                                                 T               0         ED Blade 2 pitch command, rad
          3     0.000000000E+000                                                 T               0         ED Blade 3 pitch command, rad
          4     0.000000000E+000                                                 F               0         ED Yaw moment, Nm
          5     0.000000000E+000                                                 F               0         ED Generator torque, Nm
          6     0.000000000E+000                                                 F               0         ED Extended input: collective blade-pitch command, rad

Order of outputs:
        Row   Operating Point                                             Rotating Frame? Derivative Order Description
   ---------- ---------------                                             --------------- ---------------- -----------
          1     8.954987526E-001                                                 T               0         ED OoPDefl1, (m)
          2    -1.362624913E-001                                                 T               0         ED IPDefl1, (m)
          3     0.000000000E+000                                                 T               0         ED TwstDefl1, (deg)
          4     0.000000000E+000                                                 T               0         ED BldPitch1, (deg)
          5     2.803120422E+002                                                 F               0         ED Azimuth, (deg)
          6     2.499999809E+001                                                 F               0         ED RotSpeed, (rpm)
          7     2.424999756E+003                                                 F               0         ED GenSpeed, (rpm)
          8    -2.645137138E-004                                                 F               0         ED TTDspFA, (m)
          9    -2.723062062E-004                                                 F               0         ED TTDspSS, (m)
         10     0.000000000E+000                                                 F               0         ED TTDspTwst, (deg)
         11    -6.990470123E+001                                                 T               0         ED Spn2MLxb1, (kN-m)
         12     4.113724976E+002                                                 T               0         ED Spn2MLyb1, (kN-m)
         13     1.159804382E+002                                                 T               0         ED RootFxb1, (kN)
         14    -3.003488064E+000                                                 T               0         ED RootFyb1, (kN)
         15     2.657820312E+003                                                 T               0         ED RootFzb1, (kN)
         16    -4.176831245E+000                                                 T               0         ED RootMxb1, (kN-m)
         17     2.976767578E+003                                                 T               0         ED RootMyb1, (kN-m)
         18     4.233633041E+000                                                 T               0         ED RootMzb1, (kN-m)
         19     8.552998304E-001                                                 F               0         ED RotTorq, (kN-m)
         20    -2.158847809E+000                                                 F               0         ED LSSGagMya, (kN-m)
         21    -1.320227623E+000                                                 F               0         ED LSSGagMza, (kN-m)
         22    -3.975976110E-001                                                 F               0         ED YawBrFxp, (kN)
         23    -4.039113522E-001                                                 F               0         ED YawBrFyp, (kN)
         24    -3.671339946E-003                                                 F               0         ED YawBrFzp, (kN)
         25     1.784845233E+000                                                 F               0         ED YawBrMxp, (kN-m)
         26    -2.500723600E+000                                                 F               0         ED YawBrMyp, (kN-m)
         27     1.673374891E+000                                                 F               0         ED YawBrMzp, (kN-m)
         28    -5.010038018E-001                                                 F               0         ED TwrBsFxt, (kN)
         29    -5.107972026E-001                                                 F               0         ED TwrBsFyt, (kN)
         30    -3.675975604E-003                                                 F               0         ED TwrBsFzt, (kN)
         31     4.383732605E+001                                                 F               0         ED TwrBsMxt, (kN-m)
         32    -4.383166122E+001                                                 F               0         ED TwrBsMyt, (kN-m)
         33     1.673367858E+000                                                 F               0         ED TwrBsMzt, (kN-m)


Linearized state matrices:

A: 16 x 16
     0.000000000E+000   0.000000000E+000   0.000000000E+000   0.000000000E+000   0.000000000E+000   0.000000000E+000   0.000000000E+000   0.000000000E+000   1.000000000E+000   0.000000000E+000   0.000000000E+000   0.000000000E+000   0.000000000E+000   0.000000000E+000   0.000000000E+000   0.000000000E+000
     0.000000000E+000   0.000000000E+000   0.000000000E+000   0.000000000E+000   0.000000000E+000   0.000000000E+000   0.000000000E+000   0.000000000E+000   0.000000000E+000   1.000000000E+000   0.000000000E+000   0.000000000E+000   0.000000000E+000   0.000000000E+000   0.000000000E+000   0.000000000E+000
     0.000000000E+000   0.000000000E+000   0.000000000E+000   0.000000000E+000   0.000000000E+000   0.000000000E+000   0.000000000E+000   0.000000000E+000   0.000000000E+000   0.000000000E+000   1.000000000E+000   0.000000000E+000   0.000000000E+000   0.000000000E+000   0.000000000E+000   0.000000000E+000
     0.000000000E+000   0.000000000E+000   0.000000000E+000   0.000000000E+000   0.000000000E+000   0.000000000E+000   0.000000000E+000   0.000000000E+000   0.000000000E+000   0.000000000E+000   0.000000000E+000   1.000000000E+000   0.000000000E+000   0.000000000E+000   0.000000000E+000   0.000000000E+000
     0.000000000E+000   0.000000000E+000   0.000000000E+000   0.000000000E+000   0.000000000E+000   0.000000000E+000   0.000000000E+000   0.000000000E+000   0.000000000E+000   0.000000000E+000   0.000000000E+000   0.000000000E+000   1.000000000E+000   0.000000000E+000   0.000000000E+000   0.000000000E+000
     0.000000000E+000   0.000000000E+000   0.000000000E+000   0.000000000E+000   0.000000000E+000   0.000000000E+000   0.000000000E+000   0.000000000E+000   0.000000000E+000   0.000000000E+000   0.000000000E+000   0.000000000E+000   0.000000000E+000   1.000000000E+000   0.000000000E+000   0.000000000E+000
     0.000000000E+000   0.000000000E+000   0.000000000E+000   0.000000000E+000   0.000000000E+000   0.000000000E+000   0.000000000E+000   0.000000000E+000   0.000000000E+000   0.000000000E+000   0.000000000E+000   0.000000000E+000   0.000000000E+000   0.000000000E+000   1.000000000E+000   0.000000000E+000
     0.000000000E+000   0.000000000E+000   0.000000000E+000   0.000000000E+000   0.000000000E+000   0.000000000E+000   0.000000000E+000   0.000000000E+000   0.000000000E+000   0.000000000E+000   0.000000000E+000   0.000000000E+000   0.000000000E+000   0.000000000E+000   0.000000000E+000   1.000000000E+000
    -4.707104281E+000  -6.741017943E-002   1.607738641E-001   2.050004421E-001   5.315637878E-002  -6.820900729E-001  -7.513491544E-001  -3.428569234E-001  -1.109288514E-002  -9.642991741E-003   2.801661057E-004   1.337269621E-003  -7.512068094E-004  -3.573217098E-004  -1.523936971E-003   8.975075373E-004
    -7.007811412E-002  -4.112093816E+000   9.945459551E-003   4.399796968E-002  -1.742011892E-003  -1.512339615E-001  -3.570188094E-001   3.309157732E-002  -2.469943328E-003  -1.360103376E-002  -5.139550276E-003   1.851146502E-003   1.583866231E-003   6.161504367E-003  -2.981376506E-003  -2.163468806E-003
     1.355618858E+001   9.469968170E-001  -3.010626475E+001  -5.978905421E-001  -1.526240381E-001   2.321850716E+000   2.227184582E+000   9.804176549E-001  -9.769090657E+000   1.614448747E-001  -4.074881281E-002  -4.186633130E-003   1.871338405E-003  -5.255771795E-003   4.930698156E-003  -2.186135729E-003
     1.817730929E+001   3.797954494E+000  -6.273549188E-001  -3.046877177E+001  -2.030928523E-001   2.755406119E+000   3.530805952E+000   1.291136158E+000   6.504639923E+000  -3.889733664E-001   3.344114455E-003  -4.761444594E-002   1.528422994E-003  -3.926515177E-003   3.366093186E-003  -1.592783480E-003
     2.870498535E+000   1.820984239E-001  -9.830125561E-002  -1.264169866E-001  -2.967420893E+001   4.207884701E-001   4.700486929E-001   5.394820459E-001   3.348409887E+000   1.237165389E+000   5.630998449E-006  -8.783151720E-004  -4.048737957E-002   6.317085335E-006   1.030830184E-003  -5.590743874E-003
    -1.280110967E+001  -2.619368127E+000  -6.791651775E+000   5.817685041E-001   1.430595172E-001  -1.900129129E+002  -2.248243614E+000  -9.097787251E-001   5.262607761E+000  -3.003085350E-001   2.158071153E-002   4.721849315E-003  -1.097789590E-003  -1.129150555E-001  -5.897567013E-003   1.150926499E-003
    -1.438879259E+001  -6.207012934E+000   5.024834812E-001  -6.547112092E+000   1.587927086E-001  -2.290970104E+000  -1.908764301E+002  -9.923058059E-001  -3.521390548E+000  -7.042132120E-003  -6.651707694E-003   3.061510265E-002   3.192511235E-005   7.909246734E-003  -1.247869753E-001  -4.339142425E-004
    -6.117437258E+000   4.395440889E-001   2.079730191E-001   2.611680017E-001  -7.163949198E+000  -8.683534925E-001  -9.321090169E-001  -1.885248895E+002  -1.823995949E+000  -8.702303370E-001   1.023628215E-003   1.503112075E-003   2.266242444E-002  -1.255081106E-003  -1.601143383E-003  -1.142319454E-001
B: 16 x 6
     0.000000000E+000   0.000000000E+000   0.000000000E+000   0.000000000E+000   0.000000000E+000   0.000000000E+000
     0.000000000E+000   0.000000000E+000   0.000000000E+000   0.000000000E+000   0.000000000E+000   0.000000000E+000
     0.000000000E+000   0.000000000E+000   0.000000000E+000   0.000000000E+000   0.000000000E+000   0.000000000E+000
     0.000000000E+000   0.000000000E+000   0.000000000E+000   0.000000000E+000   0.000000000E+000   0.000000000E+000
     0.000000000E+000   0.000000000E+000   0.000000000E+000   0.000000000E+000   0.000000000E+000   0.000000000E+000
     0.000000000E+000   0.000000000E+000   0.000000000E+000   0.000000000E+000   0.000000000E+000   0.000000000E+000
     0.000000000E+000   0.000000000E+000   0.000000000E+000   0.000000000E+000   0.000000000E+000   0.000000000E+000
     0.000000000E+000   0.000000000E+000   0.000000000E+000   0.000000000E+000   0.000000000E+000   0.000000000E+000
     5.436831826E-002   5.354907879E-002   8.102217374E-003   0.000000000E+000   0.000000000E+000   1.160196144E-001
     1.397627506E-002   4.847954382E-002  -3.703397665E-002   0.000000000E+000   0.000000000E+000   2.542184223E-002
    -3.040579027E+000  -1.629510598E-001  -1.652985497E-002   0.000000000E+000   0.000000000E+000  -3.220059942E+000
    -2.212825830E-001  -3.127167973E+000   6.823275858E-004   0.000000000E+000   0.000000000E+000  -3.347768228E+000
    -3.360631348E-002  -3.429094957E-002  -2.886806422E+000   0.000000000E+000   0.000000000E+000  -2.954703685E+000
     7.465164446E+000   1.738827131E-001   1.837397662E-005   0.000000000E+000   0.000000000E+000   7.639065533E+000
     1.854145762E-001   7.541096589E+000  -2.946622834E-002   0.000000000E+000   0.000000000E+000   7.697044936E+000
     6.896868651E-002   6.347845149E-002   7.327844393E+000   0.000000000E+000   0.000000000E+000   7.460291531E+000
C: 33 x 16
     0.000000000E+000   0.000000000E+000   9.910331000E-001   0.000000000E+000   0.000000000E+000   1.012658839E+000   0.000000000E+000   0.000000000E+000   0.000000000E+000   0.000000000E+000   0.000000000E+000   0.000000000E+000   0.000000000E+000   0.000000000E+000   0.000000000E+000   0.000000000E+000
     0.000000000E+000   0.000000000E+000  -1.265685071E-001   0.000000000E+000   0.000000000E+000   4.159161788E-002   0.000000000E+000   0.000000000E+000   0.000000000E+000   0.000000000E+000   0.000000000E+000   0.000000000E+000   0.000000000E+000   0.000000000E+000   0.000000000E+000   0.000000000E+000
     0.000000000E+000   0.000000000E+000   0.000000000E+000   0.000000000E+000   0.000000000E+000   0.000000000E+000   0.000000000E+000   0.000000000E+000   0.000000000E+000   0.000000000E+000   0.000000000E+000   0.000000000E+000   0.000000000E+000   0.000000000E+000   0.000000000E+000   0.000000000E+000
     0.000000000E+000   0.000000000E+000   0.000000000E+000   0.000000000E+000   0.000000000E+000   0.000000000E+000   0.000000000E+000   0.000000000E+000   0.000000000E+000   0.000000000E+000   0.000000000E+000   0.000000000E+000   0.000000000E+000   0.000000000E+000   0.000000000E+000   0.000000000E+000
     0.000000000E+000   0.000000000E+000   0.000000000E+000   0.000000000E+000   0.000000000E+000   0.000000000E+000   0.000000000E+000   0.000000000E+000   0.000000000E+000   0.000000000E+000   0.000000000E+000   0.000000000E+000   0.000000000E+000   0.000000000E+000   0.000000000E+000   0.000000000E+000
     0.000000000E+000   0.000000000E+000   0.000000000E+000   0.000000000E+000   0.000000000E+000   0.000000000E+000   0.000000000E+000   0.000000000E+000   0.000000000E+000   0.000000000E+000   0.000000000E+000   0.000000000E+000   0.000000000E+000   0.000000000E+000   0.000000000E+000   0.000000000E+000
     0.000000000E+000   0.000000000E+000   0.000000000E+000   0.000000000E+000   0.000000000E+000   0.000000000E+000   0.000000000E+000   0.000000000E+000   0.000000000E+000   0.000000000E+000   0.000000000E+000   0.000000000E+000   0.000000000E+000   0.000000000E+000   0.000000000E+000   0.000000000E+000
     1.000000005E+000   0.000000000E+000   0.000000000E+000   0.000000000E+000   0.000000000E+000   0.000000000E+000   0.000000000E+000   0.000000000E+000   0.000000000E+000   0.000000000E+000   0.000000000E+000   0.000000000E+000   0.000000000E+000   0.000000000E+000   0.000000000E+000   0.000000000E+000
     0.000000000E+000  -1.000000005E+000   0.000000000E+000   0.000000000E+000   0.000000000E+000   0.000000000E+000   0.000000000E+000   0.000000000E+000   0.000000000E+000   0.000000000E+000   0.000000000E+000   0.000000000E+000   0.000000000E+000   0.000000000E+000   0.000000000E+000   0.000000000E+000
     0.000000000E+000   0.000000000E+000   0.000000000E+000   0.000000000E+000   0.000000000E+000   0.000000000E+000   0.000000000E+000   0.000000000E+000   0.000000000E+000   0.000000000E+000   0.000000000E+000   0.000000000E+000   0.000000000E+000   0.000000000E+000   0.000000000E+000   0.000000000E+000
    -3.902140161E+001   2.561980923E+002   2.256028142E+001  -8.575785614E-001   5.989598344E-001  -6.909444242E+002   1.536945826E+001  -5.228881861E+000   5.786274386E+001  -9.766858802E-001  -3.217789855E+000  -1.033302114E-001  -1.059601119E-001   8.085167018E-002   1.704104433E-001   1.469545741E-001
    -2.715109401E+001  -5.714155072E+000   4.843317127E+002   1.235626755E+000   3.032204176E-001   4.979375383E+002  -4.782864955E+000  -1.928356758E+000   7.814485060E+000  -6.117853566E-001   1.134837596E+000   1.009313157E-002  -2.416665306E-003   3.219851129E-001  -1.208332653E-002   2.843135655E-003
     4.636232688E+001  -1.006189803E+001   5.327391180E+001  -1.912328580E+000  -5.301914908E-001  -2.257844195E+002   6.497986538E+000   3.476621818E+000  -9.303403949E+000   6.292506808E-001   1.843240384E-001  -8.369480583E-003   1.160354739E-002  -2.187437494E-001   7.107839136E-003  -1.439337425E-002
    -5.955800308E+000  -4.544100373E+001  -9.604676426E+000   7.109593884E-001   3.921583653E-002   8.959826605E+001  -4.766311464E+000  -1.226102251E-002  -6.108543924E+000  -3.615867903E-002   2.348024682E-001   2.199487503E-002   1.677838746E-002  -1.836654527E-001  -3.556140768E-002  -2.216757331E-002
    -1.924179719E+000  -7.444419791E+001  -3.974703645E-001   8.250779669E-001  -2.445096663E-002  -4.071370257E+000  -6.573329633E+000   5.515683170E-001   1.265487491E+000   4.204053240E+001   1.812783293E+000   3.411762785E-002   2.956861081E-002  -2.348430051E+000  -5.117644178E-002  -3.411762785E-002
    -4.155311341E+001   1.281883189E+003   3.139133441E+002  -1.096342761E+001   1.259572399E+000  -3.039930397E+003   1.012505577E+002  -1.494219383E+001   2.316331450E+002  -2.241432655E+000  -1.028040092E+001  -5.594535760E-001  -5.042190023E-001   5.253315058E+000   9.099811054E-001   6.870059705E-001
     3.687239326E+002  -2.766467434E+002   1.853076212E+003  -1.325014940E+001  -4.337487755E+000  -4.856883148E+003   3.514115669E+001   2.947763047E+001  -1.328442500E+002   6.914272350E+000   6.613702160E+000   2.103920384E-002   1.688822579E-001  -5.225683333E+000  -7.960779833E-002  -2.217645811E-001
     1.232046074E+000  -1.043986636E+001   3.761549545E+000   5.035348728E-002  -2.028177474E-002   1.811805410E+001  -6.803201593E-001   1.847482875E-001  -2.203305228E+000   3.625614177E-002   1.142140901E-001   4.241380885E-003   4.175855493E-003  -3.021942233E-002  -6.252677240E-003  -6.363737227E-003
    -1.040191982E+003   3.093267103E+003   3.590267636E+002   3.435865468E+002   3.428777531E+002  -3.257753326E+003  -3.118226088E+003  -3.318330951E+003  -7.363593155E-001  -2.457869736E+001  -8.367360448E+000  -1.340234823E+001  -1.368578442E+001   2.807031441E+000   9.502028678E+000   9.444055365E+000
    -9.992654646E+000  -1.092906759E+003   1.953183018E+003  -9.962000471E+002  -9.438650275E+002  -5.309503237E+003   2.799788320E+003   2.386697590E+003  -2.196203703E+002  -1.053871308E+001   9.577919854E+000  -4.146529270E+000  -5.887162166E+000  -9.112405257E+000   3.926198196E+000   5.479344342E+000
     4.146004116E+002  -2.124768032E+002   2.331531607E+001   1.655047122E+003  -1.712822198E+003  -2.453555214E+002  -4.367696782E+003   4.745629473E+003   7.164882599E+001  -2.138977476E+001  -1.263978704E+000   9.942735250E+000  -8.845227137E+000   1.117988131E+000  -9.745672076E+000   8.748650483E+000
     1.589407877E+003   3.652976356E+000   1.227242143E+000  -1.486600557E+001   3.620530238E+001  -9.385070018E+000   2.554864744E+001  -1.113962317E+002   4.541773743E+000  -9.980477651E-002   3.124742133E-003  -1.827604526E-001   2.294657582E-001   1.838042777E-003   1.926342407E-001  -2.488805709E-001
    -1.710680165E+001  -1.491810398E+003   3.316628246E+000   6.899298468E+000   7.984270686E+000  -4.836466391E+001  -5.068568436E+001  -7.020100636E+001   5.086936489E-001  -5.815932495E+000   6.824219696E-002  -3.468183341E-001  -3.422568922E-001  -2.296213810E-001   3.249913679E-001   2.869401341E-001
     1.972540734E+001   2.671679026E+000   4.559410596E+000  -1.067398419E+001  -9.997153533E+000  -6.906588445E+001   7.422689200E+001   6.316044737E+001   9.272206124E+000   4.736818323E-001   4.761093900E-002   1.624037124E+000  -1.704324332E+000  -1.889426675E-001  -2.024229638E+000   2.245272850E+000
    -9.991286971E+002   6.009224239E+003   1.843314661E+002   4.434042774E+002   3.777434455E+002  -2.704073625E+003  -3.344307260E+003  -3.275555619E+003   1.800214902E+001  -1.256150755E+001  -9.946897779E+000  -1.184352137E+001  -1.231207012E+001   4.848837363E+000   7.892863874E+000   8.173803993E+000
     3.651726833E+003  -3.935024871E+002   4.019022799E+002   1.399648815E+003  -1.800076467E+003  -1.479495650E+003  -3.567437257E+003   5.016328328E+003   6.914294961E+001  -2.269162560E+001   6.470443662E-001   1.376228920E+001  -1.457735956E+001  -1.139708688E+000  -1.483899134E+001   1.605171642E+001
     1.402516371E+002   2.711686821E+002  -1.939361967E+003   1.274895434E+003   5.628796611E+002   5.405805928E+003  -3.537972065E+003  -9.453074213E+002   2.259503651E+002   9.756395202E+000  -1.548160886E+001   1.037909549E+001   8.413113275E+000   1.725343545E+001  -1.112504821E+001  -8.209987336E+000
     2.037676631E+003   1.007260041E+001  -1.408367237E+001  -3.438864976E+001   3.114313489E+001   5.557239040E+001   9.710112334E+001  -7.874543419E+001   5.598130545E+000   8.185184618E-001  -2.355644785E-002  -3.101199498E-001   3.010135168E-001   3.586821089E-002   3.377729841E-001  -3.343641366E-001
    -2.383582071E+001  -1.886653848E+003   4.271566434E+000   1.112405034E+001   7.817059325E+000  -6.288577381E+001  -8.496709793E+001  -6.702390778E+001   2.714756586E-001  -7.121908935E+000  -4.252587531E-001  -1.690802917E-001  -1.901641972E-001   3.620083555E-001   3.872800554E-002   7.919132338E-002
     1.974291944E+001   2.652459860E+000   4.559393382E+000  -1.067406304E+001  -9.996948072E+000  -6.906605660E+001   7.422683647E+001   6.315960331E+001   9.273221686E+000   4.737894373E-001   4.760980237E-002   1.624034347E+000  -1.704324332E+000  -1.889421469E-001  -2.024227209E+000   2.245272503E+000