
Linearized model: Predictions were generated on 17-Jan-2026 at 04:54:16 using OpenFAST, compiled as a 64-bit application using single precision at commit v3.5.1
 linked with  NWTC Subroutine Library; ElastoDyn; InflowWind; AeroDyn

Description from the FAST input file: FAST Certification Test #18: NREL 5.0 MW Baseline Wind Turbine (Onshore)

Simulation information:
   Simulation time:                    73.0750 s
   Rotor Speed:                         0.8193 rad/s
   Azimuth:                             3.3197 rad
   Wind Speed:                          5.7500 m/s
   Number of continuous states:        16
   Number of discrete states:           0
   Number of constraint states:         0
   Number of inputs:                   66
   Number of outputs:                  36
   Jacobians included in this file?    No

Order of continuous states:
   Row/Column Operating Point                                             Rotating Frame? Derivative Order Description
   ---------- ---------------                                             --------------- ---------------- -----------
          1     1.185081601E-001                                                 F               2         ED 1st tower fore-aft bending mode DOF (internal DOF index = DOF_TFA1), m
          2     1.723842433E-005                                                 F               2         ED 2nd tower fore-aft bending mode DOF (internal DOF index = DOF_TFA2), m
          3     1.885455370E+000                                                 T               2         ED 1st flapwise bending-mode DOF of blade 1 (internal DOF index = DOF_BF(1,1)), m
          4     1.885372162E+000                                                 T               2         ED 1st flapwise bending-mode DOF of blade 2 (internal DOF index = DOF_BF(2,1)), m
          5     1.885416031E+000                                                 T               2         ED 1st flapwise bending-mode DOF of blade 3 (internal DOF index = DOF_BF(3,1)), m
          6     4.221124947E-002                                                 T               2         ED 2nd flapwise bending-mode DOF of blade 1 (internal DOF index = DOF_BF(1,2)), m
          7     4.219997674E-002                                                 T               2         ED 2nd flapwise bending-mode DOF of blade 2 (internal DOF index = DOF_BF(2,2)), m
          8     4.220351204E-002                                                 T               2         ED 2nd flapwise bending-mode DOF of blade 3 (internal DOF index = DOF_BF(3,2)), m
          9    -2.495708713E-006                                                 F               2         ED First time derivative of 1st tower fore-aft bending mode DOF (internal DOF index = DOF_TFA1), m/s
         10     1.288014762E-008                                                 F               2         ED First time derivative of 2nd tower fore-aft bending mode DOF (internal DOF index = DOF_TFA2), m/s
         11    -1.934311149E-005                                                 T               2         ED First time derivative of 1st flapwise bending-mode DOF of blade 1 (internal DOF index = DOF_BF(1,1)), m/s
         12     7.353593537E-005                                                 T               2         ED First time derivative of 1st flapwise bending-mode DOF of blade 2 (internal DOF index = DOF_BF(2,1)), m/s
         13     2.516921813E-005                                                 T               2         ED First time derivative of 1st flapwise bending-mode DOF of blade 3 (internal DOF index = DOF_BF(3,1)), m/s
         14    -8.041301953E-007                                                 T               2         ED First time derivative of 2nd flapwise bending-mode DOF of blade 1 (internal DOF index = DOF_BF(1,2)), m/s
         15    -6.455732660E-007                                                 T               2         ED First time derivative of 2nd flapwise bending-mode DOF of blade 2 (internal DOF index = DOF_BF(2,2)), m/s
         16     1.678655963E-006                                                 T               2         ED First time derivative of 2nd flapwise bending-mode DOF of blade 3 (internal DOF index = DOF_BF(3,2)), m/s

Order of continuous state derivatives:
   Row/Column Operating Point                                             Rotating Frame? Derivative Order Description
   ---------- ---------------                                             --------------- ---------------- -----------
          1    -2.495708713E-006                                                 F               2         First time derivative of ED 1st tower fore-aft bending mode DOF (internal DOF index = DOF_TFA1), m/s
          2     1.288014762E-008                                                 F               2         First time derivative of ED 2nd tower fore-aft bending mode DOF (internal DOF index = DOF_TFA2), m/s
          3    -1.934311149E-005                                                 T               2         First time derivative of ED 1st flapwise bending-mode DOF of blade 1 (internal DOF index = DOF_BF(1,1)), m/s
          4     7.353593537E-005                                                 T               2         First time derivative of ED 1st flapwise bending-mode DOF of blade 2 (internal DOF index = DOF_BF(2,1)), m/s
          5     2.516921813E-005                                                 T               2         First time derivative of ED 1st flapwise bending-mode DOF of blade 3 (internal DOF index = DOF_BF(3,1)), m/s
          6    -8.041301953E-007                                                 T               2         First time derivative of ED 2nd flapwise bending-mode DOF of blade 1 (internal DOF index = DOF_BF(1,2)), m/s
          7    -6.455732660E-007                                                 T               2         First time derivative of ED 2nd flapwise bending-mode DOF of blade 2 (internal DOF index = DOF_BF(2,2)), m/s
          8     1.678655963E-006                                                 T               2         First time derivative of ED 2nd flapwise bending-mode DOF of blade 3 (internal DOF index = DOF_BF(3,2)), m/s
          9    -8.933422214E-005                                                 F               2         First time derivative of ED First time derivative of 1st tower fore-aft bending mode DOF (internal DOF index = DOF_TFA1), m/s/s
         10     1.173653796E-008                                                 F               2         First time derivative of ED First time derivative of 2nd tower fore-aft bending mode DOF (internal DOF index = DOF_TFA2), m/s/s
         11     1.132633315E-006                                                 T               2         First time derivative of ED First time derivative of 1st flapwise bending-mode DOF of blade 1 (internal DOF index = DOF_BF(1,1)), m/s/s
         12    -4.122001337E-005                                                 T               2         First time derivative of ED First time derivative of 1st flapwise bending-mode DOF of blade 2 (internal DOF index = DOF_BF(2,1)), m/s/s
         13    -1.592315530E-004                                                 T               2         First time derivative of ED First time derivative of 1st flapwise bending-mode DOF of blade 3 (internal DOF index = DOF_BF(3,1)), m/s/s
         14    -1.694841558E-005                                                 T               2         First time derivative of ED First time derivative of 2nd flapwise bending-mode DOF of blade 1 (internal DOF index = DOF_BF(1,2)), m/s/s
         15     4.201633146E-006                                                 T               2         First time derivative of ED First time derivative of 2nd flapwise bending-mode DOF of blade 2 (internal DOF index = DOF_BF(2,2)), m/s/s
         16     2.252028395E-007                                                 T               2         First time derivative of ED First time derivative of 2nd flapwise bending-mode DOF of blade 3 (internal DOF index = DOF_BF(3,2)), m/s/s

Order of inputs:
     Column   Operating Point                                             Rotating Frame? Derivative Order Description
   ---------- ---------------                                             --------------- ---------------- -----------
          1     5.750000000E+000                                                 F               0         IfW Extended input: horizontal wind speed (steady/uniform wind), m/s
          2     0.000000000E+000                                                 F               0         IfW Extended input: vertical power-law shear exponent, -
          3     0.000000000E+000                                                 F               0         IfW Extended input: propagation direction, rad
          4     7.495159934E-006                                                 T               0         ED Blade 1 pitch command, rad
          5     7.495159934E-006                                                 T               0         ED Blade 2 pitch command, rad
          6     7.495159934E-006                                                 T               0         ED Blade 3 pitch command, rad
          7     0.000000000E+000                                                 F               0         ED Yaw moment, Nm
          8     0.000000000E+000                                                 F               0         ED Generator torque, Nm
          9     7.495159934E-006                                                 F               0         ED Extended input: collective blade-pitch command, rad
         10     0.000000000E+000                                                 T               0         AD User property on blade 1, node 1, -
         11     0.000000000E+000                                                 T               0         AD User property on blade 1, node 2, -
         12     0.000000000E+000                                                 T               0         AD User property on blade 1, node 3, -
         13     0.000000000E+000                                                 T               0         AD User property on blade 1, node 4, -
         14     0.000000000E+000                                                 T               0         AD User property on blade 1, node 5, -
         15     0.000000000E+000                                                 T               0         AD User property on blade 1, node 6, -
         16     0.000000000E+000                                                 T               0         AD User property on blade 1, node 7, -
         17     0.000000000E+000                                                 T               0         AD User property on blade 1, node 8, -
         18     0.000000000E+000                                                 T               0         AD User property on blade 1, node 9, -
         19     0.000000000E+000                                                 T               0         AD User property on blade 1, node 10, -
         20     0.000000000E+000                                                 T               0         AD User property on blade 1, node 11, -
         21     0.000000000E+000                                                 T               0         AD User property on blade 1, node 12, -
         22     0.000000000E+000                                                 T               0         AD User property on blade 1, node 13, -
         23     0.000000000E+000                                                 T               0         AD User property on blade 1, node 14, -
         24     0.000000000E+000                                                 T               0         AD User property on blade 1, node 15, -
         25     0.000000000E+000                                                 T               0         AD User property on blade 1, node 16, -
         26     0.000000000E+000                                                 T               0         AD User property on blade 1, node 17, -
         27     0.000000000E+000                                                 T               0         AD User property on blade 1, node 18, -
         28     0.000000000E+000                                                 T               0         AD User property on blade 1, node 19, -
         29     0.000000000E+000                                                 T               0         AD User property on blade 2, node 1, -
         30     0.000000000E+000                                                 T               0         AD User property on blade 2, node 2, -
         31     0.000000000E+000                                                 T               0         AD User property on blade 2, node 3, -
         32     0.000000000E+000                                                 T               0         AD User property on blade 2, node 4, -
         33     0.000000000E+000                                                 T               0         AD User property on blade 2, node 5, -
         34     0.000000000E+000                                                 T               0         AD User property on blade 2, node 6, -
         35     0.000000000E+000                                                 T               0         AD User property on blade 2, node 7, -
         36     0.000000000E+000                                                 T               0         AD User property on blade 2, node 8, -
         37     0.000000000E+000                                                 T               0         AD User property on blade 2, node 9, -
         38     0.000000000E+000                                                 T               0         AD User property on blade 2, node 10, -
         39     0.000000000E+000                                                 T               0         AD User property on blade 2, node 11, -
         40     0.000000000E+000                                                 T               0         AD User property on blade 2, node 12, -
         41     0.000000000E+000                                                 T               0         AD User property on blade 2, node 13, -
         42     0.000000000E+000                                                 T               0         AD User property on blade 2, node 14, -
         43     0.000000000E+000                                                 T               0         AD User property on blade 2, node 15, -
         44     0.000000000E+000                                                 T               0         AD User property on blade 2, node 16, -
         45     0.000000000E+000                                                 T               0         AD User property on blade 2, node 17, -
         46     0.000000000E+000                                                 T               0         AD User property on blade 2, node 18, -
         47     0.000000000E+000                                                 T               0         AD User property on blade 2, node 19, -
         48     0.000000000E+000                                                 T               0         AD User property on blade 3, node 1, -
         49     0.000000000E+000                                                 T               0         AD User property on blade 3, node 2, -
         50     0.000000000E+000                                                 T               0         AD User property on blade 3, node 3, -
         51     0.000000000E+000                                                 T               0         AD User property on blade 3, node 4, -
         52     0.000000000E+000                                                 T               0         AD User property on blade 3, node 5, -
         53     0.000000000E+000                                                 T               0         AD User property on blade 3, node 6, -
         54     0.000000000E+000                                                 T               0         AD User property on blade 3, node 7, -
         55     0.000000000E+000                                                 T               0         AD User property on blade 3, node 8, -
         56     0.000000000E+000                                                 T               0         AD User property on blade 3, node 9, -
         57     0.000000000E+000                                                 T               0         AD User property on blade 3, node 10, -
         58     0.000000000E+000                                                 T               0         AD User property on blade 3, node 11, -
         59     0.000000000E+000                                                 T               0         AD User property on blade 3, node 12, -
         60     0.000000000E+000                                                 T               0         AD User property on blade 3, node 13, -
         61     0.000000000E+000                                                 T               0         AD User property on blade 3, node 14, -
         62     0.000000000E+000                                                 T               0         AD User property on blade 3, node 15, -
         63     0.000000000E+000                                                 T               0         AD User property on blade 3, node 16, -
         64     0.000000000E+000                                                 T               0         AD User property on blade 3, node 17, -
         65     0.000000000E+000                                                 T               0         AD User property on blade 3, node 18, -
         66     0.000000000E+000                                                 T               0         AD User property on blade 3, node 19, -

Order of outputs:
        Row   Operating Point                                             Rotating Frame? Derivative Order Description
   ---------- ---------------                                             --------------- ---------------- -----------
          1     5.750000000E+000                                                 F               0         IfW Wind1VelX, (m/s)
          2     0.000000000E+000                                                 F               0         IfW Wind1VelY, (m/s)
          3     0.000000000E+000                                                 F               0         IfW Wind1VelZ, (m/s)
          4     1.911292434E+000                                                 T               0         ED OoPDefl1, (m)
          5    -2.368979752E-001                                                 T               0         ED IPDefl1, (m)
          6     0.000000000E+000                                                 T               0         ED TwstDefl1, (deg)
          7     4.294410173E-004                                                 T               0         ED BldPitch1, (deg)
          8     1.902059021E+002                                                 F               0         ED Azimuth, (deg)
          9     7.823482513E+000                                                 F               0         ED RotSpeed, (rpm)
         10     7.588778076E+002                                                 F               0         ED GenSpeed, (rpm)
         11     1.185254008E-001                                                 F               0         ED TTDspFA, (m)
         12     0.000000000E+000                                                 F               0         ED TTDspSS, (m)
         13     0.000000000E+000                                                 F               0         ED TTDspTwst, (deg)
         14    -5.047913742E+001                                                 T               0         ED Spn2MLxb1, (kN-m)
         15     9.385727539E+002                                                 T               0         ED Spn2MLyb1, (kN-m)
         16     8.356709290E+001                                                 T               0         ED RootFxb1, (kN)
         17    -7.971480370E+000                                                 T               0         ED RootFyb1, (kN)
         18     2.569175720E+002                                                 T               0         ED RootFzb1, (kN)
         19     2.613733826E+002                                                 T               0         ED RootMxb1, (kN-m)
         20     3.244618652E+003                                                 T               0         ED RootMyb1, (kN-m)
         21    -3.674139261E+000                                                 T               0         ED RootMzb1, (kN-m)
         22     8.197273560E+002                                                 F               0         ED RotTorq, (kN-m)
         23     5.911635980E-002                                                 F               0         ED LSSGagMya, (kN-m)
         24    -4.789037257E-002                                                 F               0         ED LSSGagMza, (kN-m)
         25     2.160435333E+002                                                 F               0         ED YawBrFxp, (kN)
         26     4.418859608E-004                                                 F               0         ED YawBrFyp, (kN)
         27    -1.889822006E+001                                                 F               0         ED YawBrFzp, (kN)
         28     8.166102295E+002                                                 F               0         ED YawBrMxp, (kN-m)
         29     4.239344177E+002                                                 F               0         ED YawBrMyp, (kN-m)
         30    -7.140880585E+001                                                 F               0         ED YawBrMzp, (kN-m)
         31     2.241959534E+002                                                 F               0         ED TwrBsFxt, (kN)
         32     4.418859608E-004                                                 F               0         ED TwrBsFyt, (kN)
         33    -1.938649750E+001                                                 F               0         ED TwrBsFzt, (kN)
         34     8.164116211E+002                                                 F               0         ED TwrBsMxt, (kN-m)
         35     1.969993945E+004                                                 F               0         ED TwrBsMyt, (kN-m)
         36    -7.321318817E+001                                                 F               0         ED TwrBsMzt, (kN-m)


Linearized state matrices:

A: 16 x 16
     0.000000000E+000   0.000000000E+000   0.000000000E+000   0.000000000E+000   0.000000000E+000   0.000000000E+000   0.000000000E+000   0.000000000E+000   1.000000000E+000   0.000000000E+000   0.000000000E+000   0.000000000E+000   0.000000000E+000   0.000000000E+000   0.000000000E+000   0.000000000E+000
     0.000000000E+000   0.000000000E+000   0.000000000E+000   0.000000000E+000   0.000000000E+000   0.000000000E+000   0.000000000E+000   0.000000000E+000   0.000000000E+000   1.000000000E+000   0.000000000E+000   0.000000000E+000   0.000000000E+000   0.000000000E+000   0.000000000E+000   0.000000000E+000
     0.000000000E+000   0.000000000E+000   0.000000000E+000   0.000000000E+000   0.000000000E+000   0.000000000E+000   0.000000000E+000   0.000000000E+000   0.000000000E+000   0.000000000E+000   1.000000000E+000   0.000000000E+000   0.000000000E+000   0.000000000E+000   0.000000000E+000   0.000000000E+000
     0.000000000E+000   0.000000000E+000   0.000000000E+000   0.000000000E+000   0.000000000E+000   0.000000000E+000   0.000000000E+000   0.000000000E+000   0.000000000E+000   0.000000000E+000   0.000000000E+000   1.000000000E+000   0.000000000E+000   0.000000000E+000   0.000000000E+000   0.000000000E+000
     0.000000000E+000   0.000000000E+000   0.000000000E+000   0.000000000E+000   0.000000000E+000   0.000000000E+000   0.000000000E+000   0.000000000E+000   0.000000000E+000   0.000000000E+000   0.000000000E+000   0.000000000E+000   1.000000000E+000   0.000000000E+000   0.000000000E+000   0.000000000E+000
     0.000000000E+000   0.000000000E+000   0.000000000E+000   0.000000000E+000   0.000000000E+000   0.000000000E+000   0.000000000E+000   0.000000000E+000   0.000000000E+000   0.000000000E+000   0.000000000E+000   0.000000000E+000   0.000000000E+000   1.000000000E+000   0.000000000E+000   0.000000000E+000
     0.000000000E+000   0.000000000E+000   0.000000000E+000   0.000000000E+000   0.000000000E+000   0.000000000E+000   0.000000000E+000   0.000000000E+000   0.000000000E+000   0.000000000E+000   0.000000000E+000   0.000000000E+000   0.000000000E+000   0.000000000E+000   1.000000000E+000   0.000000000E+000
     0.000000000E+000   0.000000000E+000   0.000000000E+000   0.000000000E+000   0.000000000E+000   0.000000000E+000   0.000000000E+000   0.000000000E+000   0.000000000E+000   0.000000000E+000   0.000000000E+000   0.000000000E+000   0.000000000E+000   0.000000000E+000   0.000000000E+000   1.000000000E+000
    -4.685141447E+000   8.766042818E+001   4.527361139E-002   1.579391791E-001   1.302599951E-001  -3.218390652E-001  -6.523927311E-001  -5.361869475E-001  -3.591900678E-002   1.117144253E-001  -6.041149990E-004   6.213373055E-006   4.910743987E-004  -1.687913793E-003  -3.426027197E-003  -2.630797538E-003
    -6.700989130E-002  -2.986286654E+002  -4.159787417E-002   3.368280501E-002   1.707896897E-002   1.081007426E-001  -1.044495272E-001  -4.517516366E-002  -2.683963628E-004  -3.035285960E-001  -2.698984526E-004   4.004605225E-005   2.269634970E-004   4.203917606E-004  -4.773311946E-004  -1.562281463E-004
    -2.816784818E+000  -2.443241319E+004  -2.269084308E+001   2.657813423E+000   1.318475121E+000   1.437097704E+001  -8.147245538E+000  -3.376029274E+000  -1.587354036E+000   2.413803981E+002  -4.023592279E+000   3.265496782E-003   1.824232710E-002  -1.194232905E+000  -3.697412783E-002  -1.122369949E-002
     2.193432206E+001   1.949866130E+004   2.592653875E+000  -2.209429038E+001  -1.622516123E+000  -5.972042928E+000   1.474299662E+001   5.010147483E+000  -1.413518357E+001  -3.155404274E+002   2.018800219E-002  -4.004533960E+000  -1.691302565E-002  -2.158882545E-002  -1.185089444E+000   2.023768022E-002
     1.635338852E+001   1.002256433E+004   1.296957132E+000  -1.635712084E+000  -2.024017710E+001  -2.756029579E+000   5.561637592E+000   8.540404027E+000  -7.012710377E+000   1.892371749E+001   1.111662888E-002  -1.398413006E-003  -4.011301755E+000  -9.405039608E-003   2.675432704E-002  -1.216169061E+000
    -3.471959233E+000   1.248915810E+004   4.223374823E+000  -1.184127809E+000  -5.333079541E-001  -1.578343119E+002   3.454447201E+000   1.154334898E+000   2.433370181E+000   4.339031003E+001  -1.664014704E+000  -1.650658062E-003  -8.745525457E-003  -3.423947917E+000   1.519208072E-002   2.953469934E-003
    -1.755818470E+001  -1.211902142E+004  -1.583834052E+000   4.333289686E+000   1.120657958E+000   3.470669547E+000  -1.593206171E+002  -3.569828983E+000   3.011397393E+000   4.799658032E+001  -1.311370685E-002  -1.672831016E+000   1.097407261E-002   1.211823114E-002  -3.434755921E+000  -1.479933495E-002
    -1.313141140E+001  -5.256835148E+003  -6.482559799E-001   1.019264141E+000   3.080875530E+000   1.165915788E+000  -3.573849159E+000  -1.551062264E+002   1.097882713E-001  -8.098413464E+001  -6.486984313E-003   7.505790151E-004  -1.668844744E+000   3.425700290E-003  -1.746187102E-002  -3.413915848E+000
B: 16 x 66
     0.000000000E+000   0.000000000E+000   0.000000000E+000   0.000000000E+000   0.000000000E+000   0.000000000E+000   0.000000000E+000   0.000000000E+000   0.000000000E+000   0.000000000E+000   0.000000000E+000   0.000000000E+000   0.000000000E+000   0.000000000E+000   0.000000000E+000   0.000000000E+000   0.000000000E+000   0.000000000E+000   0.000000000E+000   0.000000000E+000   0.000000000E+000   0.000000000E+000   0.000000000E+000   0.000000000E+000   0.000000000E+000   0.000000000E+000   0.000000000E+000   0.000000000E+000   0.000000000E+000   0.000000000E+000   0.000000000E+000   0.000000000E+000   0.000000000E+000   0.000000000E+000   0.000000000E+000   0.000000000E+000   0.000000000E+000   0.000000000E+000   0.000000000E+000   0.000000000E+000   0.000000000E+000   0.000000000E+000   0.000000000E+000   0.000000000E+000   0.000000000E+000   0.000000000E+000   0.000000000E+000   0.000000000E+000   0.000000000E+000   0.000000000E+000   0.000000000E+000   0.000000000E+000   0.000000000E+000   0.000000000E+000   0.000000000E+000   0.000000000E+000   0.000000000E+000   0.000000000E+000   0.000000000E+000   0.000000000E+000   0.000000000E+000   0.000000000E+000   0.000000000E+000   0.000000000E+000   0.000000000E+000   0.000000000E+000