
Linearized model: Predictions were generated on 17-Jan-2026 at 04:54:16 using OpenFAST, compiled as a 64-bit application using single precision at commit v3.5.1
 linked with  NWTC Subroutine Library; ElastoDyn; InflowWind; AeroDyn

Description from the FAST input file: FAST Certification Test #18: NREL 5.0 MW Baseline Wind Turbine (Onshore)

Simulation information:
   Simulation time:                    58.5438 s
   Rotor Speed:                         1.2671 rad/s
   Azimuth:                             5.0663 rad
   Wind Speed:                         20.0000 m/s
   Number of continuous states:        16
   Number of discrete states:           0
   Number of constraint states:         0
   Number of inputs:                   66
   Number of outputs:                  36
   Jacobians included in this file?    No

Order of continuous states:
   Row/Column Operating Point                                             Rotating Frame? Derivative Order Description
   ---------- ---------------                                             --------------- ---------------- -----------
          1     1.823082566E-001                                                 F               2         ED 1st tower fore-aft bending mode DOF (internal DOF index = DOF_TFA1), m
          2    -4.763203833E-005                                                 F               2         ED 2nd tower fore-aft bending mode DOF (internal DOF index = DOF_TFA2), m
          3     1.204487562E+000                                                 T               2         ED 1st flapwise bending-mode DOF of blade 1 (internal DOF index = DOF_BF(1,1)), m
          4     1.204445243E+000                                                 T               2         ED 1st flapwise bending-mode DOF of blade 2 (internal DOF index = DOF_BF(2,1)), m
          5     1.204531312E+000                                                 T               2         ED 1st flapwise bending-mode DOF of blade 3 (internal DOF index = DOF_BF(3,1)), m
          6    -2.096099854E-001                                                 T               2         ED 2nd flapwise bending-mode DOF of blade 1 (internal DOF index = DOF_BF(1,2)), m
          7    -2.096082866E-001                                                 T               2         ED 2nd flapwise bending-mode DOF of blade 2 (internal DOF index = DOF_BF(2,2)), m
          8    -2.096100897E-001                                                 T               2         ED 2nd flapwise bending-mode DOF of blade 3 (internal DOF index = DOF_BF(3,2)), m
          9    -1.526142114E-006                                                 F               2         ED First time derivative of 1st tower fore-aft bending mode DOF (internal DOF index = DOF_TFA1), m/s
         10     3.989221176E-010                                                 F               2         ED First time derivative of 2nd tower fore-aft bending mode DOF (internal DOF index = DOF_TFA2), m/s
         11    -4.966143024E-005                                                 T               2         ED First time derivative of 1st flapwise bending-mode DOF of blade 1 (internal DOF index = DOF_BF(1,1)), m/s
         12    -7.971811283E-005                                                 T               2         ED First time derivative of 1st flapwise bending-mode DOF of blade 2 (internal DOF index = DOF_BF(2,1)), m/s
         13    -6.379484148E-006                                                 T               2         ED First time derivative of 1st flapwise bending-mode DOF of blade 3 (internal DOF index = DOF_BF(3,1)), m/s
         14     3.675857670E-006                                                 T               2         ED First time derivative of 2nd flapwise bending-mode DOF of blade 1 (internal DOF index = DOF_BF(1,2)), m/s
         15     4.709315363E-006                                                 T               2         ED First time derivative of 2nd flapwise bending-mode DOF of blade 2 (internal DOF index = DOF_BF(2,2)), m/s
         16    -1.205489468E-007                                                 T               2         ED First time derivative of 2nd flapwise bending-mode DOF of blade 3 (internal DOF index = DOF_BF(3,2)), m/s

Order of continuous state derivatives:
   Row/Column Operating Point                                             Rotating Frame? Derivative Order Description
   ---------- ---------------                                             --------------- ---------------- -----------
          1    -1.526142114E-006                                                 F               2         First time derivative of ED 1st tower fore-aft bending mode DOF (internal DOF index = DOF_TFA1), m/s
          2     3.989221176E-010                                                 F               2         First time derivative of ED 2nd tower fore-aft bending mode DOF (internal DOF index = DOF_TFA2), m/s
          3    -4.966143024E-005                                                 T               2         First time derivative of ED 1st flapwise bending-mode DOF of blade 1 (internal DOF index = DOF_BF(1,1)), m/s
          4    -7.971811283E-005                                                 T               2         First time derivative of ED 1st flapwise bending-mode DOF of blade 2 (internal DOF index = DOF_BF(2,1)), m/s
          5    -6.379484148E-006                                                 T               2         First time derivative of ED 1st flapwise bending-mode DOF of blade 3 (internal DOF index = DOF_BF(3,1)), m/s
          6     3.675857670E-006                                                 T               2         First time derivative of ED 2nd flapwise bending-mode DOF of blade 1 (internal DOF index = DOF_BF(1,2)), m/s
          7     4.709315363E-006                                                 T               2         First time derivative of ED 2nd flapwise bending-mode DOF of blade 2 (internal DOF index = DOF_BF(2,2)), m/s
          8    -1.205489468E-007                                                 T               2         First time derivative of ED 2nd flapwise bending-mode DOF of blade 3 (internal DOF index = DOF_BF(3,2)), m/s
          9     7.594716590E-005                                                 F               2         First time derivative of ED First time derivative of 1st tower fore-aft bending mode DOF (internal DOF index = DOF_TFA1), m/s/s
         10    -1.178383968E-007                                                 F               2         First time derivative of ED First time derivative of 2nd tower fore-aft bending mode DOF (internal DOF index = DOF_TFA2), m/s/s
         11    -1.100471491E-004                                                 T               2         First time derivative of ED First time derivative of 1st flapwise bending-mode DOF of blade 1 (internal DOF index = DOF_BF(1,1)), m/s/s
         12     5.503938519E-005                                                 T               2         First time derivative of ED First time derivative of 1st flapwise bending-mode DOF of blade 2 (internal DOF index = DOF_BF(2,1)), m/s/s
         13     6.854448293E-005                                                 T               2         First time derivative of ED First time derivative of 1st flapwise bending-mode DOF of blade 3 (internal DOF index = DOF_BF(3,1)), m/s/s
         14     1.023204459E-005                                                 T               2         First time derivative of ED First time derivative of 2nd flapwise bending-mode DOF of blade 1 (internal DOF index = DOF_BF(1,2)), m/s/s
         15    -8.480588440E-005                                                 T               2         First time derivative of ED First time derivative of 2nd flapwise bending-mode DOF of blade 2 (internal DOF index = DOF_BF(2,2)), m/s/s
         16    -3.617304174E-005                                                 T               2         First time derivative of ED First time derivative of 2nd flapwise bending-mode DOF of blade 3 (internal DOF index = DOF_BF(3,2)), m/s/s

Order of inputs:
     Column   Operating Point                                             Rotating Frame? Derivative Order Description
   ---------- ---------------                                             --------------- ---------------- -----------
          1     2.000000000E+001                                                 F               0         IfW Extended input: horizontal wind speed (steady/uniform wind), m/s
          2     0.000000000E+000                                                 F               0         IfW Extended input: vertical power-law shear exponent, -
          3     0.000000000E+000                                                 F               0         IfW Extended input: propagation direction, rad
          4     3.049613833E-001                                                 T               0         ED Blade 1 pitch command, rad
          5     3.049613833E-001                                                 T               0         ED Blade 2 pitch command, rad
          6     3.049613833E-001                                                 T               0         ED Blade 3 pitch command, rad
          7     0.000000000E+000                                                 F               0         ED Yaw moment, Nm
          8     0.000000000E+000                                                 F               0         ED Generator torque, Nm
          9     3.049613833E-001                                                 F               0         ED Extended input: collective blade-pitch command, rad
         10     0.000000000E+000                                                 T               0         AD User property on blade 1, node 1, -
         11     0.000000000E+000                                                 T               0         AD User property on blade 1, node 2, -
         12     0.000000000E+000                                                 T               0         AD User property on blade 1, node 3, -
         13     0.000000000E+000                                                 T               0         AD User property on blade 1, node 4, -
         14     0.000000000E+000                                                 T               0         AD User property on blade 1, node 5, -
         15     0.000000000E+000                                                 T               0         AD User property on blade 1, node 6, -
         16     0.000000000E+000                                                 T               0         AD User property on blade 1, node 7, -
         17     0.000000000E+000                                                 T               0         AD User property on blade 1, node 8, -
         18     0.000000000E+000                                                 T               0         AD User property on blade 1, node 9, -
         19     0.000000000E+000                                                 T               0         AD User property on blade 1, node 10, -
         20     0.000000000E+000                                                 T               0         AD User property on blade 1, node 11, -
         21     0.000000000E+000                                                 T               0         AD User property on blade 1, node 12, -
         22     0.000000000E+000                                                 T               0         AD User property on blade 1, node 13, -
         23     0.000000000E+000                                                 T               0         AD User property on blade 1, node 14, -
         24     0.000000000E+000                                                 T               0         AD User property on blade 1, node 15, -
         25     0.000000000E+000                                                 T               0         AD User property on blade 1, node 16, -
         26     0.000000000E+000                                                 T               0         AD User property on blade 1, node 17, -
         27     0.000000000E+000                                                 T               0         AD User property on blade 1, node 18, -
         28     0.000000000E+000                                                 T               0         AD User property on blade 1, node 19, -
         29     0.000000000E+000                                                 T               0         AD User property on blade 2, node 1, -
         30     0.000000000E+000                                                 T               0         AD User property on blade 2, node 2, -
         31     0.000000000E+000                                                 T               0         AD User property on blade 2, node 3, -
         32     0.000000000E+000                                                 T               0         AD User property on blade 2, node 4, -
         33     0.000000000E+000                                                 T               0         AD User property on blade 2, node 5, -
         34     0.000000000E+000                                                 T               0         AD User property on blade 2, node 6, -
         35     0.000000000E+000                                                 T               0         AD User property on blade 2, node 7, -
         36     0.000000000E+000                                                 T               0         AD User property on blade 2, node 8, -
         37     0.000000000E+000                                                 T               0         AD User property on blade 2, node 9, -
         38     0.000000000E+000                                                 T               0         AD User property on blade 2, node 10, -
         39     0.000000000E+000                                                 T               0         AD User property on blade 2, node 11, -
         40     0.000000000E+000                                                 T               0         AD User property on blade 2, node 12, -
         41     0.000000000E+000                                                 T               0         AD User property on blade 2, node 13, -
         42     0.000000000E+000                                                 T               0         AD User property on blade 2, node 14, -
         43     0.000000000E+000                                                 T               0         AD User property on blade 2, node 15, -
         44     0.000000000E+000                                                 T               0         AD User property on blade 2, node 16, -
         45     0.000000000E+000                                                 T               0         AD User property on blade 2, node 17, -
         46     0.000000000E+000                                                 T               0         AD User property on blade 2, node 18, -
         47     0.000000000E+000                                                 T               0         AD User property on blade 2, node 19, -
         48     0.000000000E+000                                                 T               0         AD User property on blade 3, node 1, -
         49     0.000000000E+000                                                 T               0         AD User property on blade 3, node 2, -
         50     0.000000000E+000                                                 T               0         AD User property on blade 3, node 3, -
         51     0.000000000E+000                                                 T               0         AD User property on blade 3, node 4, -
         52     0.000000000E+000                                                 T               0         AD User property on blade 3, node 5, -
         53     0.000000000E+000                                                 T               0         AD User property on blade 3, node 6, -
         54     0.000000000E+000                                                 T               0         AD User property on blade 3, node 7, -
         55     0.000000000E+000                                                 T               0         AD User property on blade 3, node 8, -
         56     0.000000000E+000                                                 T               0         AD User property on blade 3, node 9, -
         57     0.000000000E+000                                                 T               0         AD User property on blade 3, node 10, -
         58     0.000000000E+000                                                 T               0         AD User property on blade 3, node 11, -
         59     0.000000000E+000                                                 T               0         AD User property on blade 3, node 12, -
         60     0.000000000E+000                                                 T               0         AD User property on blade 3, node 13, -
         61     0.000000000E+000                                                 T               0         AD User property on blade 3, node 14, -
         62     0.000000000E+000                                                 T               0         AD User property on blade 3, node 15, -
         63     0.000000000E+000                                                 T               0         AD User property on blade 3, node 16, -
         64     0.000000000E+000                                                 T               0         AD User property on blade 3, node 17, -
         65     0.000000000E+000                                                 T               0         AD User property on blade 3, node 18, -
         66     0.000000000E+000                                                 T               0         AD User property on blade 3, node 19, -

Order of outputs:
        Row   Operating Point                                             Rotating Frame? Derivative Order Description
   ---------- ---------------                                             --------------- ---------------- -----------
          1     2.000000000E+001                                                 F               0         IfW Wind1VelX, (m/s)
          2     0.000000000E+000                                                 F               0         IfW Wind1VelY, (m/s)
          3     0.000000000E+000                                                 F               0         IfW Wind1VelZ, (m/s)
          4     8.877477050E-001                                                 T               0         ED OoPDefl1, (m)
          5    -4.484104216E-001                                                 T               0         ED IPDefl1, (m)
          6     0.000000000E+000                                                 T               0         ED TwstDefl1, (deg)
          7     1.747299957E+001                                                 T               0         ED BldPitch1, (deg)
          8     2.902766418E+002                                                 F               0         ED Azimuth, (deg)
          9     1.210000134E+001                                                 F               0         ED RotSpeed, (rpm)
         10     1.173700073E+003                                                 F               0         ED GenSpeed, (rpm)
         11     1.822606176E-001                                                 F               0         ED TTDspFA, (m)
         12     0.000000000E+000                                                 F               0         ED TTDspSS, (m)
         13     0.000000000E+000                                                 F               0         ED TTDspTwst, (deg)
         14    -9.226598358E+001                                                 T               0         ED Spn2MLxb1, (kN-m)
         15     4.700113525E+002                                                 T               0         ED Spn2MLyb1, (kN-m)
         16     1.395930481E+002                                                 T               0         ED RootFxb1, (kN)
         17    -1.231582451E+001                                                 T               0         ED RootFyb1, (kN)
         18     6.212548218E+002                                                 T               0         ED RootFzb1, (kN)
         19     1.722061005E+002                                                 T               0         ED RootMxb1, (kN-m)
         20     3.699001953E+003                                                 T               0         ED RootMyb1, (kN-m)
         21    -3.340401077E+001                                                 T               0         ED RootMzb1, (kN-m)
         22     4.066709961E+003                                                 F               0         ED RotTorq, (kN-m)
         23     5.907113664E-003                                                 F               0         ED LSSGagMya, (kN-m)
         24    -1.497857869E-001                                                 F               0         ED LSSGagMza, (kN-m)
         25     3.055063171E+002                                                 F               0         ED YawBrFxp, (kN)
         26     1.566641498E-003                                                 F               0         ED YawBrFyp, (kN)
         27    -2.673056793E+001                                                 F               0         ED YawBrFzp, (kN)
         28     4.051226807E+003                                                 F               0         ED YawBrMxp, (kN-m)
         29     5.994352417E+002                                                 F               0         ED YawBrMyp, (kN-m)
         30    -3.544992065E+002                                                 F               0         ED YawBrMzp, (kN-m)
         31     4.044460449E+002                                                 F               0         ED TwrBsFxt, (kN)
         32     1.566641498E-003                                                 F               0         ED TwrBsFyt, (kN)
         33    -2.795200157E+001                                                 F               0         ED TwrBsFzt, (kN)
         34     4.049884766E+003                                                 F               0         ED TwrBsMxt, (kN-m)
         35     3.161074414E+004                                                 F               0         ED TwrBsMyt, (kN-m)
         36    -3.680072021E+002                                                 F               0         ED TwrBsMzt, (kN-m)


Linearized state matrices:

A: 16 x 16
     0.000000000E+000   0.000000000E+000   0.000000000E+000   0.000000000E+000   0.000000000E+000   0.000000000E+000   0.000000000E+000   0.000000000E+000   1.000000000E+000   0.000000000E+000   0.000000000E+000   0.000000000E+000   0.000000000E+000   0.000000000E+000   0.000000000E+000   0.000000000E+000
     0.000000000E+000   0.000000000E+000   0.000000000E+000   0.000000000E+000   0.000000000E+000   0.000000000E+000   0.000000000E+000   0.000000000E+000   0.000000000E+000   1.000000000E+000   0.000000000E+000   0.000000000E+000   0.000000000E+000   0.000000000E+000   0.000000000E+000   0.000000000E+000
     0.000000000E+000   0.000000000E+000   0.000000000E+000   0.000000000E+000   0.000000000E+000   0.000000000E+000   0.000000000E+000   0.000000000E+000   0.000000000E+000   0.000000000E+000   1.000000000E+000   0.000000000E+000   0.000000000E+000   0.000000000E+000   0.000000000E+000   0.000000000E+000
     0.000000000E+000   0.000000000E+000   0.000000000E+000   0.000000000E+000   0.000000000E+000   0.000000000E+000   0.000000000E+000   0.000000000E+000   0.000000000E+000   0.000000000E+000   0.000000000E+000   1.000000000E+000   0.000000000E+000   0.000000000E+000   0.000000000E+000   0.000000000E+000
     0.000000000E+000   0.000000000E+000   0.000000000E+000   0.000000000E+000   0.000000000E+000   0.000000000E+000   0.000000000E+000   0.000000000E+000   0.000000000E+000   0.000000000E+000   0.000000000E+000   0.000000000E+000   1.000000000E+000   0.000000000E+000   0.000000000E+000   0.000000000E+000
     0.000000000E+000   0.000000000E+000   0.000000000E+000   0.000000000E+000   0.000000000E+000   0.000000000E+000   0.000000000E+000   0.000000000E+000   0.000000000E+000   0.000000000E+000   0.000000000E+000   0.000000000E+000   0.000000000E+000   1.000000000E+000   0.000000000E+000   0.000000000E+000
     0.000000000E+000   0.000000000E+000   0.000000000E+000   0.000000000E+000   0.000000000E+000   0.000000000E+000   0.000000000E+000   0.000000000E+000   0.000000000E+000   0.000000000E+000   0.000000000E+000   0.000000000E+000   0.000000000E+000   0.000000000E+000   1.000000000E+000   0.000000000E+000
     0.000000000E+000   0.000000000E+000   0.000000000E+000   0.000000000E+000   0.000000000E+000   0.000000000E+000   0.000000000E+000   0.000000000E+000   0.000000000E+000   0.000000000E+000   0.000000000E+000   0.000000000E+000   0.000000000E+000   0.000000000E+000   0.000000000E+000   1.000000000E+000
    -4.603439215E+000   1.270977830E+002   1.291308869E-001   1.270922224E-001   4.449629565E-002  -5.254583770E-001  -4.672920798E-001  -2.847342613E-001  -5.216760862E-002   1.832208758E-001  -3.095039464E-004  -3.102009096E-004  -1.243013323E-003  -2.954059885E-003  -2.643894371E-003  -1.002537691E-003
    -5.347041581E-002  -2.770102921E+002   1.917300025E-002   2.383094833E-002  -3.568855123E-002  -6.110421725E-002  -5.350158061E-002   8.393663961E-002  -6.599695596E-004  -3.325303655E-001   1.217947680E-005   1.685027474E-005  -7.452973813E-005  -3.280130139E-004  -2.701526744E-004   4.384760098E-004
     1.578846265E+001   1.080081639E+004  -2.179420747E+001  -1.348810313E+000   1.308257823E+000   8.465144558E+000   3.579616453E+000  -2.531146308E+000  -1.977787138E+001  -3.975409610E+002  -6.054083568E+000   2.587571207E-004   6.780878624E-003  -1.284609311E+000   1.893676058E-002  -1.469196345E-002
     1.680221873E+001   1.411464606E+004  -1.408961459E+000  -2.246520965E+001   1.732924427E+000   4.846157071E+000   8.097079962E+000  -3.513244076E+000  -1.396835732E+001  -1.408106460E+002   3.278561625E-004  -6.052958040E+000   7.791498342E-003   2.643111335E-002  -1.281497520E+000  -1.986726068E-002
    -2.298055271E+000  -2.100680105E+004   1.389759303E+000   1.742659944E+000  -2.351944895E+001  -4.377092833E+000  -3.829195683E+000   1.032434821E+001  -8.573821165E-001   4.512169644E+002   1.061760291E-003   1.415018758E-003  -6.057905370E+000  -2.343569302E-002  -1.920533019E-002  -1.270910403E+000
    -1.245714050E+001  -6.965674276E+003   1.840198516E+000   9.544721133E-001  -8.299236658E-001  -1.610193919E+002  -2.607354346E+000   1.492197777E+000   6.145613315E+000   1.082313518E+002  -2.009321578E+000  -3.464063225E-004  -5.143555849E-003  -4.600369754E+000  -1.389151392E-002   9.032897944E-003
    -1.199336941E+001  -6.207609356E+003   7.417720845E-001   1.419767410E+000  -7.341371599E-001  -2.622603825E+000  -1.614149993E+002   1.317868853E+000   2.445532692E+000  -5.954887819E+001  -4.175244751E-004  -2.001910661E+000  -4.565525535E-003  -1.438106661E-002  -4.593911038E+000   7.985027242E-003
    -3.147556642E+000   9.645635757E+003  -5.138719874E-001  -6.758481310E-001   1.834502520E+000   1.511088217E+000   1.315061808E+000  -1.623728263E+002   2.972062963E+000  -2.183437840E+001  -7.616116414E-004  -9.225371106E-004  -2.001954175E+000   7.963442821E-003   6.324287161E-003  -4.597878247E+000
B: 16 x 66
     0.000000000E+000   0.000000000E+000   0.000000000E+000   0.000000000E+000   0.000000000E+000   0.000000000E+000   0.000000000E+000   0.000000000E+000   0.000000000E+000   0.000000000E+000   0.000000000E+000   0.000000000E+000   0.000000000E+000   0.000000000E+000   0.000000000E+000   0.000000000E+000   0.000000000E+000   0.000000000E+000   0.000000000E+000   0.000000000E+000   0.000000000E+000   0.000000000E+000   0.000000000E+000   0.000000000E+000   0.000000000E+000   0.000000000E+000   0.000000000E+000   0.000000000E+000   0.000000000E+000   0.000000000E+000   0.000000000E+000   0.000000000E+000   0.000000000E+000   0.000000000E+000   0.000000000E+000   0.000000000E+000   0.000000000E+000   0.000000000E+000   0.000000000E+000   0.000000000E+000   0.000000000E+000   0.000000000E+000   0.000000000E+000   0.000000000E+000   0.000000000E+000   0.000000000E+000   0.000000000E+000   0.000000000E+000   0.000000000E+000   0.000000000E+000   0.000000000E+000   0.000000000E+000   0.000000000E+000   0.000000000E+000   0.000000000E+000   0.000000000E+000   0.000000000E+000   0.000000000E+000   0.000000000E+000   0.000000000E+000   0.000000000E+000   0.000000000E+000   0.000000000E+000   0.000000000E+000   0.000000000E+000   0.000000000E+000