
Linearized model: Predictions were generated on 09-Apr-2026 at 13:26:58 using OpenFAST, compiled as a 64-bit application using single precision at commit v3.5.1
 linked with  NWTC Subroutine Library; ElastoDyn; InflowWind; AeroDyn

Description from the FAST input file: FAST Certification Test #18: NREL 5.0 MW Baseline Wind Turbine (Onshore)

Simulation information:
   Simulation time:                   240.0938 s
   Rotor Speed:                         0.8193 rad/s
   Azimuth:                             1.9236 rad
   Wind Speed:                          5.7500 m/s
   Number of continuous states:        16
   Number of discrete states:           0
   Number of constraint states:         0
   Number of inputs:                   66
   Number of outputs:                  36
   Jacobians included in this file?    No

Order of continuous states:
   Row/Column Operating Point                                             Rotating Frame? Derivative Order Description
   ---------- ---------------                                             --------------- ---------------- -----------
          1     1.185089126E-001                                                 F               2         ED 1st tower fore-aft bending mode DOF (internal DOF index = DOF_TFA1), m
          2     9.183225222E-003                                                 F               2         ED 1st tower side-to-side bending mode DOF (internal DOF index = DOF_TSS1), m
          3     1.885403156E+000                                                 T               2         ED 1st flapwise bending-mode DOF of blade 1 (internal DOF index = DOF_BF(1,1)), m
          4     1.885459304E+000                                                 T               2         ED 1st flapwise bending-mode DOF of blade 2 (internal DOF index = DOF_BF(2,1)), m
          5     1.885414958E+000                                                 T               2         ED 1st flapwise bending-mode DOF of blade 3 (internal DOF index = DOF_BF(3,1)), m
          6     4.220991582E-002                                                 T               2         ED 2nd flapwise bending-mode DOF of blade 1 (internal DOF index = DOF_BF(1,2)), m
          7     4.221190140E-002                                                 T               2         ED 2nd flapwise bending-mode DOF of blade 2 (internal DOF index = DOF_BF(2,2)), m
          8     4.221494496E-002                                                 T               2         ED 2nd flapwise bending-mode DOF of blade 3 (internal DOF index = DOF_BF(3,2)), m
          9    -7.655782611E-006                                                 F               2         ED First time derivative of 1st tower fore-aft bending mode DOF (internal DOF index = DOF_TFA1), m/s
         10    -1.546454296E-004                                                 F               2         ED First time derivative of 1st tower side-to-side bending mode DOF (internal DOF index = DOF_TSS1), m/s
         11    -5.631284239E-006                                                 T               2         ED First time derivative of 1st flapwise bending-mode DOF of blade 1 (internal DOF index = DOF_BF(1,1)), m/s
         12     1.401631289E-005                                                 T               2         ED First time derivative of 1st flapwise bending-mode DOF of blade 2 (internal DOF index = DOF_BF(2,1)), m/s
         13    -4.202291893E-005                                                 T               2         ED First time derivative of 1st flapwise bending-mode DOF of blade 3 (internal DOF index = DOF_BF(3,1)), m/s
         14     1.668094910E-006                                                 T               2         ED First time derivative of 2nd flapwise bending-mode DOF of blade 1 (internal DOF index = DOF_BF(1,2)), m/s
         15     1.826338121E-006                                                 T               2         ED First time derivative of 2nd flapwise bending-mode DOF of blade 2 (internal DOF index = DOF_BF(2,2)), m/s
         16     9.631699868E-006                                                 T               2         ED First time derivative of 2nd flapwise bending-mode DOF of blade 3 (internal DOF index = DOF_BF(3,2)), m/s

Order of continuous state derivatives:
   Row/Column Operating Point                                             Rotating Frame? Derivative Order Description
   ---------- ---------------                                             --------------- ---------------- -----------
          1    -7.655782611E-006                                                 F               2         First time derivative of ED 1st tower fore-aft bending mode DOF (internal DOF index = DOF_TFA1), m/s
          2    -1.546454296E-004                                                 F               2         First time derivative of ED 1st tower side-to-side bending mode DOF (internal DOF index = DOF_TSS1), m/s
          3    -5.631284239E-006                                                 T               2         First time derivative of ED 1st flapwise bending-mode DOF of blade 1 (internal DOF index = DOF_BF(1,1)), m/s
          4     1.401631289E-005                                                 T               2         First time derivative of ED 1st flapwise bending-mode DOF of blade 2 (internal DOF index = DOF_BF(2,1)), m/s
          5    -4.202291893E-005                                                 T               2         First time derivative of ED 1st flapwise bending-mode DOF of blade 3 (internal DOF index = DOF_BF(3,1)), m/s
          6     1.668094910E-006                                                 T               2         First time derivative of ED 2nd flapwise bending-mode DOF of blade 1 (internal DOF index = DOF_BF(1,2)), m/s
          7     1.826338121E-006                                                 T               2         First time derivative of ED 2nd flapwise bending-mode DOF of blade 2 (internal DOF index = DOF_BF(2,2)), m/s
          8     9.631699868E-006                                                 T               2         First time derivative of ED 2nd flapwise bending-mode DOF of blade 3 (internal DOF index = DOF_BF(3,2)), m/s
          9     3.239985745E-005                                                 F               2         First time derivative of ED First time derivative of 1st tower fore-aft bending mode DOF (internal DOF index = DOF_TFA1), m/s/s
         10     3.934768902E-004                                                 F               2         First time derivative of ED First time derivative of 1st tower side-to-side bending mode DOF (internal DOF index = DOF_TSS1), m/s/s
         11     1.284080499E-004                                                 T               2         First time derivative of ED First time derivative of 1st flapwise bending-mode DOF of blade 1 (internal DOF index = DOF_BF(1,1)), m/s/s
         12    -7.342439858E-006                                                 T               2         First time derivative of ED First time derivative of 1st flapwise bending-mode DOF of blade 2 (internal DOF index = DOF_BF(2,1)), m/s/s
         13     1.172272532E-004                                                 T               2         First time derivative of ED First time derivative of 1st flapwise bending-mode DOF of blade 3 (internal DOF index = DOF_BF(3,1)), m/s/s
         14    -1.246751799E-005                                                 T               2         First time derivative of ED First time derivative of 2nd flapwise bending-mode DOF of blade 1 (internal DOF index = DOF_BF(1,2)), m/s/s
         15     1.291500303E-005                                                 T               2         First time derivative of ED First time derivative of 2nd flapwise bending-mode DOF of blade 2 (internal DOF index = DOF_BF(2,2)), m/s/s
         16    -1.017044542E-005                                                 T               2         First time derivative of ED First time derivative of 2nd flapwise bending-mode DOF of blade 3 (internal DOF index = DOF_BF(3,2)), m/s/s

Order of inputs:
     Column   Operating Point                                             Rotating Frame? Derivative Order Description
   ---------- ---------------                                             --------------- ---------------- -----------
          1     5.750000000E+000                                                 F               0         IfW Extended input: horizontal wind speed (steady/uniform wind), m/s
          2     0.000000000E+000                                                 F               0         IfW Extended input: vertical power-law shear exponent, -
          3     0.000000000E+000                                                 F               0         IfW Extended input: propagation direction, rad
          4     7.495159934E-006                                                 T               0         ED Blade 1 pitch command, rad
          5     7.495159934E-006                                                 T               0         ED Blade 2 pitch command, rad
          6     7.495159934E-006                                                 T               0         ED Blade 3 pitch command, rad
          7     0.000000000E+000                                                 F               0         ED Yaw moment, Nm
          8     0.000000000E+000                                                 F               0         ED Generator torque, Nm
          9     7.495159934E-006                                                 F               0         ED Extended input: collective blade-pitch command, rad
         10     0.000000000E+000                                                 T               0         AD User property on blade 1, node 1, -
         11     0.000000000E+000                                                 T               0         AD User property on blade 1, node 2, -
         12     0.000000000E+000                                                 T               0         AD User property on blade 1, node 3, -
         13     0.000000000E+000                                                 T               0         AD User property on blade 1, node 4, -
         14     0.000000000E+000                                                 T               0         AD User property on blade 1, node 5, -
         15     0.000000000E+000                                                 T               0         AD User property on blade 1, node 6, -
         16     0.000000000E+000                                                 T               0         AD User property on blade 1, node 7, -
         17     0.000000000E+000                                                 T               0         AD User property on blade 1, node 8, -
         18     0.000000000E+000                                                 T               0         AD User property on blade 1, node 9, -
         19     0.000000000E+000                                                 T               0         AD User property on blade 1, node 10, -
         20     0.000000000E+000                                                 T               0         AD User property on blade 1, node 11, -
         21     0.000000000E+000                                                 T               0         AD User property on blade 1, node 12, -
         22     0.000000000E+000                                                 T               0         AD User property on blade 1, node 13, -
         23     0.000000000E+000                                                 T               0         AD User property on blade 1, node 14, -
         24     0.000000000E+000                                                 T               0         AD User property on blade 1, node 15, -
         25     0.000000000E+000                                                 T               0         AD User property on blade 1, node 16, -
         26     0.000000000E+000                                                 T               0         AD User property on blade 1, node 17, -
         27     0.000000000E+000                                                 T               0         AD User property on blade 1, node 18, -
         28     0.000000000E+000                                                 T               0         AD User property on blade 1, node 19, -
         29     0.000000000E+000                                                 T               0         AD User property on blade 2, node 1, -
         30     0.000000000E+000                                                 T               0         AD User property on blade 2, node 2, -
         31     0.000000000E+000                                                 T               0         AD User property on blade 2, node 3, -
         32     0.000000000E+000                                                 T               0         AD User property on blade 2, node 4, -
         33     0.000000000E+000                                                 T               0         AD User property on blade 2, node 5, -
         34     0.000000000E+000                                                 T               0         AD User property on blade 2, node 6, -
         35     0.000000000E+000                                                 T               0         AD User property on blade 2, node 7, -
         36     0.000000000E+000                                                 T               0         AD User property on blade 2, node 8, -
         37     0.000000000E+000                                                 T               0         AD User property on blade 2, node 9, -
         38     0.000000000E+000                                                 T               0         AD User property on blade 2, node 10, -
         39     0.000000000E+000                                                 T               0         AD User property on blade 2, node 11, -
         40     0.000000000E+000                                                 T               0         AD User property on blade 2, node 12, -
         41     0.000000000E+000                                                 T               0         AD User property on blade 2, node 13, -
         42     0.000000000E+000                                                 T               0         AD User property on blade 2, node 14, -
         43     0.000000000E+000                                                 T               0         AD User property on blade 2, node 15, -
         44     0.000000000E+000                                                 T               0         AD User property on blade 2, node 16, -
         45     0.000000000E+000                                                 T               0         AD User property on blade 2, node 17, -
         46     0.000000000E+000                                                 T               0         AD User property on blade 2, node 18, -
         47     0.000000000E+000                                                 T               0         AD User property on blade 2, node 19, -
         48     0.000000000E+000                                                 T               0         AD User property on blade 3, node 1, -
         49     0.000000000E+000                                                 T               0         AD User property on blade 3, node 2, -
         50     0.000000000E+000                                                 T               0         AD User property on blade 3, node 3, -
         51     0.000000000E+000                                                 T               0         AD User property on blade 3, node 4, -
         52     0.000000000E+000                                                 T               0         AD User property on blade 3, node 5, -
         53     0.000000000E+000                                                 T               0         AD User property on blade 3, node 6, -
         54     0.000000000E+000                                                 T               0         AD User property on blade 3, node 7, -
         55     0.000000000E+000                                                 T               0         AD User property on blade 3, node 8, -
         56     0.000000000E+000                                                 T               0         AD User property on blade 3, node 9, -
         57     0.000000000E+000                                                 T               0         AD User property on blade 3, node 10, -
         58     0.000000000E+000                                                 T               0         AD User property on blade 3, node 11, -
         59     0.000000000E+000                                                 T               0         AD User property on blade 3, node 12, -
         60     0.000000000E+000                                                 T               0         AD User property on blade 3, node 13, -
         61     0.000000000E+000                                                 T               0         AD User property on blade 3, node 14, -
         62     0.000000000E+000                                                 T               0         AD User property on blade 3, node 15, -
         63     0.000000000E+000                                                 T               0         AD User property on blade 3, node 16, -
         64     0.000000000E+000                                                 T               0         AD User property on blade 3, node 17, -
         65     0.000000000E+000                                                 T               0         AD User property on blade 3, node 18, -
         66     0.000000000E+000                                                 T               0         AD User property on blade 3, node 19, -

Order of outputs:
        Row   Operating Point                                             Rotating Frame? Derivative Order Description
   ---------- ---------------                                             --------------- ---------------- -----------
          1     5.750000000E+000                                                 F               0         IfW Wind1VelX, (m/s)
          2     0.000000000E+000                                                 F               0         IfW Wind1VelY, (m/s)
          3     0.000000000E+000                                                 F               0         IfW Wind1VelZ, (m/s)
          4     1.911239266E+000                                                 T               0         ED OoPDefl1, (m)
          5    -2.368914038E-001                                                 T               0         ED IPDefl1, (m)
          6     0.000000000E+000                                                 T               0         ED TwstDefl1, (deg)
          7     4.294410173E-004                                                 T               0         ED BldPitch1, (deg)
          8     1.102155304E+002                                                 F               0         ED Azimuth, (deg)
          9     7.823482513E+000                                                 F               0         ED RotSpeed, (rpm)
         10     7.588778076E+002                                                 F               0         ED GenSpeed, (rpm)
         11     1.185089126E-001                                                 F               0         ED TTDspFA, (m)
         12    -9.183225222E-003                                                 F               0         ED TTDspSS, (m)
         13     0.000000000E+000                                                 F               0         ED TTDspTwst, (deg)
         14    -5.049180984E+001                                                 T               0         ED Spn2MLxb1, (kN-m)
         15     9.385484009E+002                                                 T               0         ED Spn2MLyb1, (kN-m)
         16     8.356397247E+001                                                 T               0         ED RootFxb1, (kN)
         17    -7.970805645E+000                                                 T               0         ED RootFyb1, (kN)
         18     2.569096069E+002                                                 T               0         ED RootFzb1, (kN)
         19     2.613222961E+002                                                 T               0         ED RootMxb1, (kN-m)
         20     3.244531250E+003                                                 T               0         ED RootMyb1, (kN-m)
         21    -3.673511505E+000                                                 T               0         ED RootMzb1, (kN-m)
         22     8.194649658E+002                                                 F               0         ED RotTorq, (kN-m)
         23    -1.474215090E-001                                                 F               0         ED LSSGagMya, (kN-m)
         24     8.030045033E-002                                                 F               0         ED LSSGagMza, (kN-m)
         25     2.160016632E+002                                                 F               0         ED YawBrFxp, (kN)
         26     1.421141326E-001                                                 F               0         ED YawBrFyp, (kN)
         27    -1.889863396E+001                                                 F               0         ED YawBrFzp, (kN)
         28     8.160621338E+002                                                 F               0         ED YawBrMxp, (kN-m)
         29     4.238914490E+002                                                 F               0         ED YawBrMyp, (kN-m)
         30    -7.153752899E+001                                                 F               0         ED YawBrMzp, (kN-m)
         31     2.241427612E+002                                                 F               0         ED TwrBsFxt, (kN)
         32     1.833918840E-001                                                 F               0         ED TwrBsFyt, (kN)
         33    -1.938352585E+001                                                 F               0         ED TwrBsFzt, (kN)
         34     8.009640503E+002                                                 F               0         ED TwrBsMxt, (kN-m)
         35     1.969553906E+004                                                 F               0         ED TwrBsMyt, (kN-m)
         36    -7.121991730E+001                                                 F               0         ED TwrBsMzt, (kN-m)


Linearized state matrices:

A: 16 x 16
     0.000000000E+000   0.000000000E+000   0.000000000E+000   0.000000000E+000   0.000000000E+000   0.000000000E+000   0.000000000E+000   0.000000000E+000   1.000000000E+000   0.000000000E+000   0.000000000E+000   0.000000000E+000   0.000000000E+000   0.000000000E+000   0.000000000E+000   0.000000000E+000
     0.000000000E+000   0.000000000E+000   0.000000000E+000   0.000000000E+000   0.000000000E+000   0.000000000E+000   0.000000000E+000   0.000000000E+000   0.000000000E+000   1.000000000E+000   0.000000000E+000   0.000000000E+000   0.000000000E+000   0.000000000E+000   0.000000000E+000   0.000000000E+000
     0.000000000E+000   0.000000000E+000   0.000000000E+000   0.000000000E+000   0.000000000E+000   0.000000000E+000   0.000000000E+000   0.000000000E+000   0.000000000E+000   0.000000000E+000   1.000000000E+000   0.000000000E+000   0.000000000E+000   0.000000000E+000   0.000000000E+000   0.000000000E+000
     0.000000000E+000   0.000000000E+000   0.000000000E+000   0.000000000E+000   0.000000000E+000   0.000000000E+000   0.000000000E+000   0.000000000E+000   0.000000000E+000   0.000000000E+000   0.000000000E+000   1.000000000E+000   0.000000000E+000   0.000000000E+000   0.000000000E+000   0.000000000E+000
     0.000000000E+000   0.000000000E+000   0.000000000E+000   0.000000000E+000   0.000000000E+000   0.000000000E+000   0.000000000E+000   0.000000000E+000   0.000000000E+000   0.000000000E+000   0.000000000E+000   0.000000000E+000   1.000000000E+000   0.000000000E+000   0.000000000E+000   0.000000000E+000
     0.000000000E+000   0.000000000E+000   0.000000000E+000   0.000000000E+000   0.000000000E+000   0.000000000E+000   0.000000000E+000   0.000000000E+000   0.000000000E+000   0.000000000E+000   0.000000000E+000   0.000000000E+000   0.000000000E+000   1.000000000E+000   0.000000000E+000   0.000000000E+000
     0.000000000E+000   0.000000000E+000   0.000000000E+000   0.000000000E+000   0.000000000E+000   0.000000000E+000   0.000000000E+000   0.000000000E+000   0.000000000E+000   0.000000000E+000   0.000000000E+000   0.000000000E+000   0.000000000E+000   0.000000000E+000   1.000000000E+000   0.000000000E+000
     0.000000000E+000   0.000000000E+000   0.000000000E+000   0.000000000E+000   0.000000000E+000   0.000000000E+000   0.000000000E+000   0.000000000E+000   0.000000000E+000   0.000000000E+000   0.000000000E+000   0.000000000E+000   0.000000000E+000   0.000000000E+000   0.000000000E+000   1.000000000E+000
    -4.707578110E+000  -6.731143826E-002   7.971345211E-002   6.303879407E-002   1.944822936E-001  -3.947427671E-001  -3.888549636E-001  -7.465263732E-001  -3.614755451E-002  -2.662995361E-003   1.695157710E-004  -7.667188450E-004   4.162561027E-004  -1.960005459E-003  -2.112925710E-003  -3.814050189E-003
    -7.015356544E-002  -4.112350451E+000   1.491859264E-002  -2.677982292E-004   3.696088560E-002  -1.225145746E-001   2.349657296E-002  -2.996146891E-001  -8.681206217E-003  -1.796316211E-002   6.094527148E-004  -1.689605166E-003  -3.351040736E-003  -3.021191068E-003   1.206669238E-003  -2.848116876E-003
     7.984539303E+000   1.858461503E+000  -1.941057508E+001  -1.071280249E-001  -3.465313049E-001   6.080124383E+000   6.515534952E-001   1.397080595E+000  -2.475093564E+000   3.302783074E-001  -4.002548514E+000   2.021034052E-003   7.132994394E-004  -1.224833977E+000   3.082668604E-003   7.696569253E-003
     5.998952924E+000  -3.149631441E-001  -1.016149910E-001  -1.934386202E+001  -2.478619400E-001   4.984466263E-001   5.873396131E+000   9.360109017E-001  -5.622270266E+000   1.098544273E+000  -1.596329231E-004  -4.001040621E+000  -8.657142847E-004   2.239127618E-003  -1.226789685E+000   4.653400123E-003
     2.043821811E+001   3.386198023E+000  -3.576056571E-001  -2.737199122E-001  -2.013261889E+001   1.807476661E+000   1.672001201E+000   8.837945839E+000  -1.463196938E+001   1.895399885E+000  -1.195282021E-003   4.603246069E-003  -4.001161278E+000   1.079059687E-002   8.273095804E-003  -1.210814867E+000
    -8.597069290E+000  -2.461537486E+000   2.590033860E+000   1.144627250E-001   3.746233006E-001  -1.537145538E+002  -6.936391350E-001  -1.527719801E+000   2.934339741E-001   2.337263814E-001  -1.673584579E+000  -2.355011124E-003  -1.149131941E-003  -3.409698338E+000  -3.155339946E-003  -8.554488652E-003
    -8.452695843E+000   3.899701877E-001   1.419227224E-001   2.552328697E+000   3.461883806E-001  -6.967508114E-001  -1.536220879E+002  -1.309222001E+000   3.369497727E+000  -1.567220219E-001   2.299011913E-004  -1.675662433E+000   1.167889069E-003  -3.159240576E-003  -3.408113551E+000  -6.524932078E-003
    -1.616765513E+001  -6.299134658E+000   2.943265479E-001   2.149521513E-001   3.153264160E+000  -1.529290185E+000  -1.293694726E+000  -1.559087849E+002   1.878297757E+000   6.660814966E-001   1.478509718E-003  -5.112700607E-003  -1.677936917E+000  -1.115424107E-002  -5.437190862E-003  -3.421417610E+000
B: 16 x 66
     0.000000000E+000   0.000000000E+000   0.000000000E+000   0.000000000E+000   0.000000000E+000   0.000000000E+000   0.000000000E+000   0.000000000E+000   0.000000000E+000   0.000000000E+000   0.000000000E+000   0.000000000E+000   0.000000000E+000   0.000000000E+000   0.000000000E+000   0.000000000E+000   0.000000000E+000   0.000000000E+000   0.000000000E+000   0.000000000E+000   0.000000000E+000   0.000000000E+000   0.000000000E+000   0.000000000E+000   0.000000000E+000   0.000000000E+000   0.000000000E+000   0.000000000E+000   0.000000000E+000   0.000000000E+000   0.000000000E+000   0.000000000E+000   0.000000000E+000   0.000000000E+000   0.000000000E+000   0.000000000E+000   0.000000000E+000   0.000000000E+000   0.000000000E+000   0.000000000E+000   0.000000000E+000   0.000000000E+000   0.000000000E+000   0.000000000E+000   0.000000000E+000   0.000000000E+000   0.000000000E+000   0.000000000E+000   0.000000000E+000   0.000000000E+000   0.000000000E+000   0.000000000E+000   0.000000000E+000   0.000000000E+000   0.000000000E+000   0.000000000E+000   0.000000000E+000   0.000000000E+000   0.000000000E+000   0.000000000E+000   0.000000000E+000   0.000000000E+000   0.000000000E+000   0.000000000E+000   0.000000000E+000   0.000000000E+000