
Linearized model: Predictions were generated on 13-Jan-2026 at 14:51:19 using OpenFAST, compiled as a 64-bit application using single precision at commit v3.5.1
 linked with  NWTC Subroutine Library; ElastoDyn; InflowWind; AeroDyn

Description from the FAST input file: FAST Certification Test #18: NREL 5.0 MW Baseline Wind Turbine (Onshore)

Simulation information:
   Simulation time:                   248.4313 s
   Rotor Speed:                         1.2280 rad/s
   Azimuth:                             3.4934 rad
   Wind Speed:                         10.5000 m/s
   Number of continuous states:        28
   Number of discrete states:           0
   Number of constraint states:         0
   Number of inputs:                   66
   Number of outputs:                  36
   Jacobians included in this file?    No

Order of continuous states:
   Row/Column Operating Point                                             Rotating Frame? Derivative Order Description
   ---------- ---------------                                             --------------- ---------------- -----------
          1     3.560898602E-001                                                 F               2         ED 1st tower fore-aft bending mode DOF (internal DOF index = DOF_TFA1), m
          2     3.804622218E-002                                                 F               2         ED 1st tower side-to-side bending mode DOF (internal DOF index = DOF_TSS1), m
          3    -2.697689342E-005                                                 F               2         ED 2nd tower fore-aft bending mode DOF (internal DOF index = DOF_TFA2), m
          4     2.435446950E-004                                                 F               2         ED 2nd tower side-to-side bending mode DOF (internal DOF index = DOF_TSS2), m
          5     3.872140311E-003                                                 F               2         ED Drivetrain rotational-flexibility DOF (internal DOF index = DOF_DrTr), rad
          6     4.977859974E+000                                                 T               2         ED 1st flapwise bending-mode DOF of blade 1 (internal DOF index = DOF_BF(1,1)), m
          7     4.984428406E+000                                                 T               2         ED 1st flapwise bending-mode DOF of blade 2 (internal DOF index = DOF_BF(2,1)), m
          8     5.237617016E+000                                                 T               2         ED 1st flapwise bending-mode DOF of blade 3 (internal DOF index = DOF_BF(3,1)), m
          9     2.714255154E-001                                                 T               2         ED 1st edgewise bending-mode DOF of blade 1 (internal DOF index = DOF_BE(1,1)), m
         10     4.153796434E-001                                                 T               2         ED 1st edgewise bending-mode DOF of blade 2 (internal DOF index = DOF_BE(2,1)), m
         11    -3.302011490E-001                                                 T               2         ED 1st edgewise bending-mode DOF of blade 3 (internal DOF index = DOF_BE(3,1)), m
         12     3.236173466E-002                                                 T               2         ED 2nd flapwise bending-mode DOF of blade 1 (internal DOF index = DOF_BF(1,2)), m
         13     7.165391743E-002                                                 T               2         ED 2nd flapwise bending-mode DOF of blade 2 (internal DOF index = DOF_BF(2,2)), m
         14    -2.491135523E-002                                                 T               2         ED 2nd flapwise bending-mode DOF of blade 3 (internal DOF index = DOF_BF(3,2)), m
         15    -6.272774044E-005                                                 F               2         ED First time derivative of 1st tower fore-aft bending mode DOF (internal DOF index = DOF_TFA1), m/s
         16    -3.299353557E-005                                                 F               2         ED First time derivative of 1st tower side-to-side bending mode DOF (internal DOF index = DOF_TSS1), m/s
         17     4.438514907E-007                                                 F               2         ED First time derivative of 2nd tower fore-aft bending mode DOF (internal DOF index = DOF_TFA2), m/s
         18     8.845488537E-007                                                 F               2         ED First time derivative of 2nd tower side-to-side bending mode DOF (internal DOF index = DOF_TSS2), m/s
         19     1.188900205E-005                                                 F               2         ED First time derivative of Drivetrain rotational-flexibility DOF (internal DOF index = DOF_DrTr), rad/s
         20    -1.768847555E-001                                                 T               2         ED First time derivative of 1st flapwise bending-mode DOF of blade 1 (internal DOF index = DOF_BF(1,1)), m/s
         21     1.857167184E-001                                                 T               2         ED First time derivative of 1st flapwise bending-mode DOF of blade 2 (internal DOF index = DOF_BF(2,1)), m/s
         22    -6.815037690E-003                                                 T               2         ED First time derivative of 1st flapwise bending-mode DOF of blade 3 (internal DOF index = DOF_BF(3,1)), m/s
         23     5.230090022E-001                                                 T               2         ED First time derivative of 1st edgewise bending-mode DOF of blade 1 (internal DOF index = DOF_BE(1,1)), m/s
         24    -4.280394614E-001                                                 T               2         ED First time derivative of 1st edgewise bending-mode DOF of blade 2 (internal DOF index = DOF_BE(2,1)), m/s
         25    -9.630392492E-002                                                 T               2         ED First time derivative of 1st edgewise bending-mode DOF of blade 3 (internal DOF index = DOF_BE(3,1)), m/s
         26     6.748690456E-002                                                 T               2         ED First time derivative of 2nd flapwise bending-mode DOF of blade 1 (internal DOF index = DOF_BF(1,2)), m/s
         27    -4.067124799E-002                                                 T               2         ED First time derivative of 2nd flapwise bending-mode DOF of blade 2 (internal DOF index = DOF_BF(2,2)), m/s
         28    -2.705995552E-002                                                 T               2         ED First time derivative of 2nd flapwise bending-mode DOF of blade 3 (internal DOF index = DOF_BF(3,2)), m/s

Order of continuous state derivatives:
   Row/Column Operating Point                                             Rotating Frame? Derivative Order Description
   ---------- ---------------                                             --------------- ---------------- -----------
          1    -6.272774044E-005                                                 F               2         First time derivative of ED 1st tower fore-aft bending mode DOF (internal DOF index = DOF_TFA1), m/s
          2    -3.299353557E-005                                                 F               2         First time derivative of ED 1st tower side-to-side bending mode DOF (internal DOF index = DOF_TSS1), m/s
          3     4.438514907E-007                                                 F               2         First time derivative of ED 2nd tower fore-aft bending mode DOF (internal DOF index = DOF_TFA2), m/s
          4     8.845488537E-007                                                 F               2         First time derivative of ED 2nd tower side-to-side bending mode DOF (internal DOF index = DOF_TSS2), m/s
          5     1.188900205E-005                                                 F               2         First time derivative of ED Drivetrain rotational-flexibility DOF (internal DOF index = DOF_DrTr), rad/s
          6    -1.768847555E-001                                                 T               2         First time derivative of ED 1st flapwise bending-mode DOF of blade 1 (internal DOF index = DOF_BF(1,1)), m/s
          7     1.857167184E-001                                                 T               2         First time derivative of ED 1st flapwise bending-mode DOF of blade 2 (internal DOF index = DOF_BF(2,1)), m/s
          8    -6.815037690E-003                                                 T               2         First time derivative of ED 1st flapwise bending-mode DOF of blade 3 (internal DOF index = DOF_BF(3,1)), m/s
          9     5.230090022E-001                                                 T               2         First time derivative of ED 1st edgewise bending-mode DOF of blade 1 (internal DOF index = DOF_BE(1,1)), m/s
         10    -4.280394614E-001                                                 T               2         First time derivative of ED 1st edgewise bending-mode DOF of blade 2 (internal DOF index = DOF_BE(2,1)), m/s
         11    -9.630392492E-002                                                 T               2         First time derivative of ED 1st edgewise bending-mode DOF of blade 3 (internal DOF index = DOF_BE(3,1)), m/s
         12     6.748690456E-002                                                 T               2         First time derivative of ED 2nd flapwise bending-mode DOF of blade 1 (internal DOF index = DOF_BF(1,2)), m/s
         13    -4.067124799E-002                                                 T               2         First time derivative of ED 2nd flapwise bending-mode DOF of blade 2 (internal DOF index = DOF_BF(2,2)), m/s
         14    -2.705995552E-002                                                 T               2         First time derivative of ED 2nd flapwise bending-mode DOF of blade 3 (internal DOF index = DOF_BF(3,2)), m/s
         15     3.085619392E-005                                                 F               2         First time derivative of ED First time derivative of 1st tower fore-aft bending mode DOF (internal DOF index = DOF_TFA1), m/s/s
         16    -6.955844001E-004                                                 F               2         First time derivative of ED First time derivative of 1st tower side-to-side bending mode DOF (internal DOF index = DOF_TSS1), m/s/s
         17    -1.189993691E-005                                                 F               2         First time derivative of ED First time derivative of 2nd tower fore-aft bending mode DOF (internal DOF index = DOF_TFA2), m/s/s
         18     3.544980700E-007                                                 F               2         First time derivative of ED First time derivative of 2nd tower side-to-side bending mode DOF (internal DOF index = DOF_TSS2), m/s/s
         19    -2.454512014E-006                                                 F               2         First time derivative of ED First time derivative of Drivetrain rotational-flexibility DOF (internal DOF index = DOF_DrTr), rad/s/s
         20     1.305560768E-001                                                 T               2         First time derivative of ED First time derivative of 1st flapwise bending-mode DOF of blade 1 (internal DOF index = DOF_BF(1,1)), m/s/s
         21     1.237517744E-001                                                 T               2         First time derivative of ED First time derivative of 1st flapwise bending-mode DOF of blade 2 (internal DOF index = DOF_BF(2,1)), m/s/s
         22    -2.586413026E-001                                                 T               2         First time derivative of ED First time derivative of 1st flapwise bending-mode DOF of blade 3 (internal DOF index = DOF_BF(3,1)), m/s/s
         23    -2.247347087E-001                                                 T               2         First time derivative of ED First time derivative of 1st edgewise bending-mode DOF of blade 1 (internal DOF index = DOF_BE(1,1)), m/s/s
         24    -4.536450803E-001                                                 T               2         First time derivative of ED First time derivative of 1st edgewise bending-mode DOF of blade 2 (internal DOF index = DOF_BE(2,1)), m/s/s
         25     6.809835434E-001                                                 T               2         First time derivative of ED First time derivative of 1st edgewise bending-mode DOF of blade 3 (internal DOF index = DOF_BE(3,1)), m/s/s
         26    -8.350649849E-003                                                 T               2         First time derivative of ED First time derivative of 2nd flapwise bending-mode DOF of blade 1 (internal DOF index = DOF_BF(1,2)), m/s/s
         27    -7.314612716E-002                                                 T               2         First time derivative of ED First time derivative of 2nd flapwise bending-mode DOF of blade 2 (internal DOF index = DOF_BF(2,2)), m/s/s
         28     8.124198765E-002                                                 T               2         First time derivative of ED First time derivative of 2nd flapwise bending-mode DOF of blade 3 (internal DOF index = DOF_BF(3,2)), m/s/s

Order of inputs:
     Column   Operating Point                                             Rotating Frame? Derivative Order Description
   ---------- ---------------                                             --------------- ---------------- -----------
          1     1.050000000E+001                                                 F               0         IfW Extended input: horizontal wind speed (steady/uniform wind), m/s
          2     0.000000000E+000                                                 F               0         IfW Extended input: vertical power-law shear exponent, -
          3     0.000000000E+000                                                 F               0         IfW Extended input: propagation direction, rad
          4    -5.610259715E-003                                                 T               0         ED Blade 1 pitch command, rad
          5    -5.610259715E-003                                                 T               0         ED Blade 2 pitch command, rad
          6    -5.610259715E-003                                                 T               0         ED Blade 3 pitch command, rad
          7     0.000000000E+000                                                 F               0         ED Yaw moment, Nm
          8     0.000000000E+000                                                 F               0         ED Generator torque, Nm
          9    -5.610259715E-003                                                 F               0         ED Extended input: collective blade-pitch command, rad
         10     0.000000000E+000                                                 T               0         AD User property on blade 1, node 1, -
         11     0.000000000E+000                                                 T               0         AD User property on blade 1, node 2, -
         12     0.000000000E+000                                                 T               0         AD User property on blade 1, node 3, -
         13     0.000000000E+000                                                 T               0         AD User property on blade 1, node 4, -
         14     0.000000000E+000                                                 T               0         AD User property on blade 1, node 5, -
         15     0.000000000E+000                                                 T               0         AD User property on blade 1, node 6, -
         16     0.000000000E+000                                                 T               0         AD User property on blade 1, node 7, -
         17     0.000000000E+000                                                 T               0         AD User property on blade 1, node 8, -
         18     0.000000000E+000                                                 T               0         AD User property on blade 1, node 9, -
         19     0.000000000E+000                                                 T               0         AD User property on blade 1, node 10, -
         20     0.000000000E+000                                                 T               0         AD User property on blade 1, node 11, -
         21     0.000000000E+000                                                 T               0         AD User property on blade 1, node 12, -
         22     0.000000000E+000                                                 T               0         AD User property on blade 1, node 13, -
         23     0.000000000E+000                                                 T               0         AD User property on blade 1, node 14, -
         24     0.000000000E+000                                                 T               0         AD User property on blade 1, node 15, -
         25     0.000000000E+000                                                 T               0         AD User property on blade 1, node 16, -
         26     0.000000000E+000                                                 T               0         AD User property on blade 1, node 17, -
         27     0.000000000E+000                                                 T               0         AD User property on blade 1, node 18, -
         28     0.000000000E+000                                                 T               0         AD User property on blade 1, node 19, -
         29     0.000000000E+000                                                 T               0         AD User property on blade 2, node 1, -
         30     0.000000000E+000                                                 T               0         AD User property on blade 2, node 2, -
         31     0.000000000E+000                                                 T               0         AD User property on blade 2, node 3, -
         32     0.000000000E+000                                                 T               0         AD User property on blade 2, node 4, -
         33     0.000000000E+000                                                 T               0         AD User property on blade 2, node 5, -
         34     0.000000000E+000                                                 T               0         AD User property on blade 2, node 6, -
         35     0.000000000E+000                                                 T               0         AD User property on blade 2, node 7, -
         36     0.000000000E+000                                                 T               0         AD User property on blade 2, node 8, -
         37     0.000000000E+000                                                 T               0         AD User property on blade 2, node 9, -
         38     0.000000000E+000                                                 T               0         AD User property on blade 2, node 10, -
         39     0.000000000E+000                                                 T               0         AD User property on blade 2, node 11, -
         40     0.000000000E+000                                                 T               0         AD User property on blade 2, node 12, -
         41     0.000000000E+000                                                 T               0         AD User property on blade 2, node 13, -
         42     0.000000000E+000                                                 T               0         AD User property on blade 2, node 14, -
         43     0.000000000E+000                                                 T               0         AD User property on blade 2, node 15, -
         44     0.000000000E+000                                                 T               0         AD User property on blade 2, node 16, -
         45     0.000000000E+000                                                 T               0         AD User property on blade 2, node 17, -
         46     0.000000000E+000                                                 T               0         AD User property on blade 2, node 18, -
         47     0.000000000E+000                                                 T               0         AD User property on blade 2, node 19, -
         48     0.000000000E+000                                                 T               0         AD User property on blade 3, node 1, -
         49     0.000000000E+000                                                 T               0         AD User property on blade 3, node 2, -
         50     0.000000000E+000                                                 T               0         AD User property on blade 3, node 3, -
         51     0.000000000E+000                                                 T               0         AD User property on blade 3, node 4, -
         52     0.000000000E+000                                                 T               0         AD User property on blade 3, node 5, -
         53     0.000000000E+000                                                 T               0         AD User property on blade 3, node 6, -
         54     0.000000000E+000                                                 T               0         AD User property on blade 3, node 7, -
         55     0.000000000E+000                                                 T               0         AD User property on blade 3, node 8, -
         56     0.000000000E+000                                                 T               0         AD User property on blade 3, node 9, -
         57     0.000000000E+000                                                 T               0         AD User property on blade 3, node 10, -
         58     0.000000000E+000                                                 T               0         AD User property on blade 3, node 11, -
         59     0.000000000E+000                                                 T               0         AD User property on blade 3, node 12, -
         60     0.000000000E+000                                                 T               0         AD User property on blade 3, node 13, -
         61     0.000000000E+000                                                 T               0         AD User property on blade 3, node 14, -
         62     0.000000000E+000                                                 T               0         AD User property on blade 3, node 15, -
         63     0.000000000E+000                                                 T               0         AD User property on blade 3, node 16, -
         64     0.000000000E+000                                                 T               0         AD User property on blade 3, node 17, -
         65     0.000000000E+000                                                 T               0         AD User property on blade 3, node 18, -
         66     0.000000000E+000                                                 T               0         AD User property on blade 3, node 19, -

Order of outputs:
        Row   Operating Point                                             Rotating Frame? Derivative Order Description
   ---------- ---------------                                             --------------- ---------------- -----------
          1     1.050000000E+001                                                 F               0         IfW Wind1VelX, (m/s)
          2     0.000000000E+000                                                 F               0         IfW Wind1VelY, (m/s)
          3     0.000000000E+000                                                 F               0         IfW Wind1VelZ, (m/s)
          4     5.013405800E+000                                                 T               0         ED OoPDefl1, (m)
          5    -3.329159021E-001                                                 T               0         ED IPDefl1, (m)
          6     0.000000000E+000                                                 T               0         ED TwstDefl1, (deg)
          7    -3.214441836E-001                                                 T               0         ED BldPitch1, (deg)
          8     2.001581268E+002                                                 F               0         ED Azimuth, (deg)
          9     1.172699070E+001                                                 F               0         ED RotSpeed, (rpm)
         10     1.137507080E+003                                                 F               0         ED GenSpeed, (rpm)
         11     3.560628891E-001                                                 F               0         ED TTDspFA, (m)
         12    -3.828976676E-002                                                 F               0         ED TTDspSS, (m)
         13     0.000000000E+000                                                 F               0         ED TTDspTwst, (deg)
         14    -2.070506744E+002                                                 T               0         ED Spn2MLxb1, (kN-m)
         15     2.415710205E+003                                                 T               0         ED Spn2MLyb1, (kN-m)
         16     2.644388123E+002                                                 T               0         ED RootFxb1, (kN)
         17     2.556147194E+001                                                 T               0         ED RootFyb1, (kN)
         18     7.150234375E+002                                                 T               0         ED RootFzb1, (kN)
         19    -1.053880615E+002                                                 T               0         ED RootMxb1, (kN-m)
         20     9.281318359E+003                                                 T               0         ED RootMyb1, (kN-m)
         21     2.592127800E+001                                                 T               0         ED RootMzb1, (kN-m)
         22     3.359686279E+003                                                 F               0         ED RotTorq, (kN-m)
         23     2.189769043E+003                                                 F               0         ED LSSGagMya, (kN-m)
         24    -7.198426514E+002                                                 F               0         ED LSSGagMza, (kN-m)
         25     6.692294922E+002                                                 F               0         ED YawBrFxp, (kN)
         26    -2.584568977E+000                                                 F               0         ED YawBrFyp, (kN)
         27    -3.483184814E+003                                                 F               0         ED YawBrFzp, (kN)
         28     3.344530762E+003                                                 F               0         ED YawBrMxp, (kN-m)
         29     1.586600189E+002                                                 F               0         ED YawBrMyp, (kN-m)
         30    -3.764997559E+002                                                 F               0         ED YawBrMzp, (kN-m)
         31     6.735901489E+002                                                 F               0         ED TwrBsFxt, (kN)
         32     9.786200523E-001                                                 F               0         ED TwrBsFyt, (kN)
         33    -6.895039062E+003                                                 F               0         ED TwrBsFzt, (kN)
         34     3.417015625E+003                                                 F               0         ED TwrBsMxt, (kN-m)
         35     5.952199609E+004                                                 F               0         ED TwrBsMyt, (kN-m)
         36    -3.729224243E+002                                                 F               0         ED TwrBsMzt, (kN-m)


Linearized state matrices:

A: 28 x 28
     0.000000000E+000   0.000000000E+000   0.000000000E+000   0.000000000E+000   0.000000000E+000   0.000000000E+000   0.000000000E+000   0.000000000E+000   0.000000000E+000   0.000000000E+000   0.000000000E+000   0.000000000E+000   0.000000000E+000   0.000000000E+000   1.000000000E+000   0.000000000E+000   0.000000000E+000   0.000000000E+000   0.000000000E+000   0.000000000E+000   0.000000000E+000   0.000000000E+000   0.000000000E+000   0.000000000E+000   0.000000000E+000   0.000000000E+000   0.000000000E+000   0.000000000E+000
     0.000000000E+000   0.000000000E+000   0.000000000E+000   0.000000000E+000   0.000000000E+000   0.000000000E+000   0.000000000E+000   0.000000000E+000   0.000000000E+000   0.000000000E+000   0.000000000E+000   0.000000000E+000   0.000000000E+000   0.000000000E+000   0.000000000E+000   1.000000000E+000   0.000000000E+000   0.000000000E+000   0.000000000E+000   0.000000000E+000   0.000000000E+000   0.000000000E+000   0.000000000E+000   0.000000000E+000   0.000000000E+000   0.000000000E+000   0.000000000E+000   0.000000000E+000
     0.000000000E+000   0.000000000E+000   0.000000000E+000   0.000000000E+000   0.000000000E+000   0.000000000E+000   0.000000000E+000   0.000000000E+000   0.000000000E+000   0.000000000E+000   0.000000000E+000   0.000000000E+000   0.000000000E+000   0.000000000E+000   0.000000000E+000   0.000000000E+000   1.000000000E+000   0.000000000E+000   0.000000000E+000   0.000000000E+000   0.000000000E+000   0.000000000E+000   0.000000000E+000   0.000000000E+000   0.000000000E+000   0.000000000E+000   0.000000000E+000   0.000000000E+000