
Linearized model: Predictions were generated on 13-Jan-2026 at 14:51:19 using OpenFAST, compiled as a 64-bit application using single precision at commit v3.5.1
 linked with  NWTC Subroutine Library; ElastoDyn; InflowWind; AeroDyn

Description from the FAST input file: FAST Certification Test #18: NREL 5.0 MW Baseline Wind Turbine (Onshore)

Simulation information:
   Simulation time:                   259.6500 s
   Rotor Speed:                         1.2671 rad/s
   Azimuth:                             2.2763 rad
   Wind Speed:                         15.2500 m/s
   Number of continuous states:        28
   Number of discrete states:           0
   Number of constraint states:         0
   Number of inputs:                   66
   Number of outputs:                  36
   Jacobians included in this file?    No

Order of continuous states:
   Row/Column Operating Point                                             Rotating Frame? Derivative Order Description
   ---------- ---------------                                             --------------- ---------------- -----------
          1     2.171778232E-001                                                 F               2         ED 1st tower fore-aft bending mode DOF (internal DOF index = DOF_TFA1), m
          2     4.549089074E-002                                                 F               2         ED 1st tower side-to-side bending mode DOF (internal DOF index = DOF_TSS1), m
          3    -1.115766863E-004                                                 F               2         ED 2nd tower fore-aft bending mode DOF (internal DOF index = DOF_TFA2), m
          4     2.956087992E-004                                                 F               2         ED 2nd tower side-to-side bending mode DOF (internal DOF index = DOF_TSS2), m
          5     4.701087251E-003                                                 F               2         ED Drivetrain rotational-flexibility DOF (internal DOF index = DOF_DrTr), rad
          6     2.848664761E+000                                                 T               2         ED 1st flapwise bending-mode DOF of blade 1 (internal DOF index = DOF_BF(1,1)), m
          7     2.173663139E+000                                                 T               2         ED 1st flapwise bending-mode DOF of blade 2 (internal DOF index = DOF_BF(2,1)), m
          8     2.491804838E+000                                                 T               2         ED 1st flapwise bending-mode DOF of blade 3 (internal DOF index = DOF_BF(3,1)), m
          9    -1.842712164E-001                                                 T               2         ED 1st edgewise bending-mode DOF of blade 1 (internal DOF index = DOF_BE(1,1)), m
         10     5.470340252E-001                                                 T               2         ED 1st edgewise bending-mode DOF of blade 2 (internal DOF index = DOF_BE(2,1)), m
         11     5.799578875E-002                                                 T               2         ED 1st edgewise bending-mode DOF of blade 3 (internal DOF index = DOF_BE(3,1)), m
         12    -1.909539551E-001                                                 T               2         ED 2nd flapwise bending-mode DOF of blade 1 (internal DOF index = DOF_BF(1,2)), m
         13    -5.345921591E-002                                                 T               2         ED 2nd flapwise bending-mode DOF of blade 2 (internal DOF index = DOF_BF(2,2)), m
         14    -1.372947991E-001                                                 T               2         ED 2nd flapwise bending-mode DOF of blade 3 (internal DOF index = DOF_BF(3,2)), m
         15    -2.034054205E-006                                                 F               2         ED First time derivative of 1st tower fore-aft bending mode DOF (internal DOF index = DOF_TFA1), m/s
         16    -1.107158187E-005                                                 F               2         ED First time derivative of 1st tower side-to-side bending mode DOF (internal DOF index = DOF_TSS1), m/s
         17    -3.772438504E-007                                                 F               2         ED First time derivative of 2nd tower fore-aft bending mode DOF (internal DOF index = DOF_TFA2), m/s
         18    -6.303804412E-007                                                 F               2         ED First time derivative of 2nd tower side-to-side bending mode DOF (internal DOF index = DOF_TSS2), m/s
         19    -1.021894786E-005                                                 F               2         ED First time derivative of Drivetrain rotational-flexibility DOF (internal DOF index = DOF_DrTr), rad/s
         20    -2.416289300E-001                                                 T               2         ED First time derivative of 1st flapwise bending-mode DOF of blade 1 (internal DOF index = DOF_BF(1,1)), m/s
         21    -2.632319033E-001                                                 T               2         ED First time derivative of 1st flapwise bending-mode DOF of blade 2 (internal DOF index = DOF_BF(2,1)), m/s
         22     5.047028065E-001                                                 T               2         ED First time derivative of 1st flapwise bending-mode DOF of blade 3 (internal DOF index = DOF_BF(3,1)), m/s
         23     3.592356741E-001                                                 T               2         ED First time derivative of 1st edgewise bending-mode DOF of blade 1 (internal DOF index = DOF_BE(1,1)), m/s
         24     1.827809811E-001                                                 T               2         ED First time derivative of 1st edgewise bending-mode DOF of blade 2 (internal DOF index = DOF_BE(2,1)), m/s
         25    -5.405998826E-001                                                 T               2         ED First time derivative of 1st edgewise bending-mode DOF of blade 3 (internal DOF index = DOF_BE(3,1)), m/s
         26     6.116689742E-002                                                 T               2         ED First time derivative of 2nd flapwise bending-mode DOF of blade 1 (internal DOF index = DOF_BF(1,2)), m/s
         27     4.022834077E-002                                                 T               2         ED First time derivative of 2nd flapwise bending-mode DOF of blade 2 (internal DOF index = DOF_BF(2,2)), m/s
         28    -1.012074128E-001                                                 T               2         ED First time derivative of 2nd flapwise bending-mode DOF of blade 3 (internal DOF index = DOF_BF(3,2)), m/s

Order of continuous state derivatives:
   Row/Column Operating Point                                             Rotating Frame? Derivative Order Description
   ---------- ---------------                                             --------------- ---------------- -----------
          1    -2.034054205E-006                                                 F               2         First time derivative of ED 1st tower fore-aft bending mode DOF (internal DOF index = DOF_TFA1), m/s
          2    -1.107158187E-005                                                 F               2         First time derivative of ED 1st tower side-to-side bending mode DOF (internal DOF index = DOF_TSS1), m/s
          3    -3.772438504E-007                                                 F               2         First time derivative of ED 2nd tower fore-aft bending mode DOF (internal DOF index = DOF_TFA2), m/s
          4    -6.303804412E-007                                                 F               2         First time derivative of ED 2nd tower side-to-side bending mode DOF (internal DOF index = DOF_TSS2), m/s
          5    -1.021894786E-005                                                 F               2         First time derivative of ED Drivetrain rotational-flexibility DOF (internal DOF index = DOF_DrTr), rad/s
          6    -2.416289300E-001                                                 T               2         First time derivative of ED 1st flapwise bending-mode DOF of blade 1 (internal DOF index = DOF_BF(1,1)), m/s
          7    -2.632319033E-001                                                 T               2         First time derivative of ED 1st flapwise bending-mode DOF of blade 2 (internal DOF index = DOF_BF(2,1)), m/s
          8     5.047028065E-001                                                 T               2         First time derivative of ED 1st flapwise bending-mode DOF of blade 3 (internal DOF index = DOF_BF(3,1)), m/s
          9     3.592356741E-001                                                 T               2         First time derivative of ED 1st edgewise bending-mode DOF of blade 1 (internal DOF index = DOF_BE(1,1)), m/s
         10     1.827809811E-001                                                 T               2         First time derivative of ED 1st edgewise bending-mode DOF of blade 2 (internal DOF index = DOF_BE(2,1)), m/s
         11    -5.405998826E-001                                                 T               2         First time derivative of ED 1st edgewise bending-mode DOF of blade 3 (internal DOF index = DOF_BE(3,1)), m/s
         12     6.116689742E-002                                                 T               2         First time derivative of ED 2nd flapwise bending-mode DOF of blade 1 (internal DOF index = DOF_BF(1,2)), m/s
         13     4.022834077E-002                                                 T               2         First time derivative of ED 2nd flapwise bending-mode DOF of blade 2 (internal DOF index = DOF_BF(2,2)), m/s
         14    -1.012074128E-001                                                 T               2         First time derivative of ED 2nd flapwise bending-mode DOF of blade 3 (internal DOF index = DOF_BF(3,2)), m/s
         15    -7.816137077E-005                                                 F               2         First time derivative of ED First time derivative of 1st tower fore-aft bending mode DOF (internal DOF index = DOF_TFA1), m/s/s
         16     1.632039493E-004                                                 F               2         First time derivative of ED First time derivative of 1st tower side-to-side bending mode DOF (internal DOF index = DOF_TSS1), m/s/s
         17     2.872523510E-006                                                 F               2         First time derivative of ED First time derivative of 2nd tower fore-aft bending mode DOF (internal DOF index = DOF_TFA2), m/s/s
         18    -7.678988254E-007                                                 F               2         First time derivative of ED First time derivative of 2nd tower side-to-side bending mode DOF (internal DOF index = DOF_TSS2), m/s/s
         19    -1.580664320E-005                                                 F               2         First time derivative of ED First time derivative of Drivetrain rotational-flexibility DOF (internal DOF index = DOF_DrTr), rad/s/s
         20    -5.434325933E-001                                                 T               2         First time derivative of ED First time derivative of 1st flapwise bending-mode DOF of blade 1 (internal DOF index = DOF_BF(1,1)), m/s/s
         21     5.169594288E-001                                                 T               2         First time derivative of ED First time derivative of 1st flapwise bending-mode DOF of blade 2 (internal DOF index = DOF_BF(2,1)), m/s/s
         22     2.434051223E-002                                                 T               2         First time derivative of ED First time derivative of 1st flapwise bending-mode DOF of blade 3 (internal DOF index = DOF_BF(3,1)), m/s/s
         23     5.128597021E-001                                                 T               2         First time derivative of ED First time derivative of 1st edgewise bending-mode DOF of blade 1 (internal DOF index = DOF_BE(1,1)), m/s/s
         24    -6.467044353E-001                                                 T               2         First time derivative of ED First time derivative of 1st edgewise bending-mode DOF of blade 2 (internal DOF index = DOF_BE(2,1)), m/s/s
         25     1.350222677E-001                                                 T               2         First time derivative of ED First time derivative of 1st edgewise bending-mode DOF of blade 3 (internal DOF index = DOF_BE(3,1)), m/s/s
         26     9.997761250E-002                                                 T               2         First time derivative of ED First time derivative of 2nd flapwise bending-mode DOF of blade 1 (internal DOF index = DOF_BF(1,2)), m/s/s
         27    -1.178629249E-001                                                 T               2         First time derivative of ED First time derivative of 2nd flapwise bending-mode DOF of blade 2 (internal DOF index = DOF_BF(2,2)), m/s/s
         28     1.706306450E-002                                                 T               2         First time derivative of ED First time derivative of 2nd flapwise bending-mode DOF of blade 3 (internal DOF index = DOF_BF(3,2)), m/s/s

Order of inputs:
     Column   Operating Point                                             Rotating Frame? Derivative Order Description
   ---------- ---------------                                             --------------- ---------------- -----------
          1     1.525000000E+001                                                 F               0         IfW Extended input: horizontal wind speed (steady/uniform wind), m/s
          2     0.000000000E+000                                                 F               0         IfW Extended input: vertical power-law shear exponent, -
          3     0.000000000E+000                                                 F               0         IfW Extended input: propagation direction, rad
          4     1.896158755E-001                                                 T               0         ED Blade 1 pitch command, rad
          5     1.896158755E-001                                                 T               0         ED Blade 2 pitch command, rad
          6     1.896158755E-001                                                 T               0         ED Blade 3 pitch command, rad
          7     0.000000000E+000                                                 F               0         ED Yaw moment, Nm
          8     0.000000000E+000                                                 F               0         ED Generator torque, Nm
          9     1.896158755E-001                                                 F               0         ED Extended input: collective blade-pitch command, rad
         10     0.000000000E+000                                                 T               0         AD User property on blade 1, node 1, -
         11     0.000000000E+000                                                 T               0         AD User property on blade 1, node 2, -
         12     0.000000000E+000                                                 T               0         AD User property on blade 1, node 3, -
         13     0.000000000E+000                                                 T               0         AD User property on blade 1, node 4, -
         14     0.000000000E+000                                                 T               0         AD User property on blade 1, node 5, -
         15     0.000000000E+000                                                 T               0         AD User property on blade 1, node 6, -
         16     0.000000000E+000                                                 T               0         AD User property on blade 1, node 7, -
         17     0.000000000E+000                                                 T               0         AD User property on blade 1, node 8, -
         18     0.000000000E+000                                                 T               0         AD User property on blade 1, node 9, -
         19     0.000000000E+000                                                 T               0         AD User property on blade 1, node 10, -
         20     0.000000000E+000                                                 T               0         AD User property on blade 1, node 11, -
         21     0.000000000E+000                                                 T               0         AD User property on blade 1, node 12, -
         22     0.000000000E+000                                                 T               0         AD User property on blade 1, node 13, -
         23     0.000000000E+000                                                 T               0         AD User property on blade 1, node 14, -
         24     0.000000000E+000                                                 T               0         AD User property on blade 1, node 15, -
         25     0.000000000E+000                                                 T               0         AD User property on blade 1, node 16, -
         26     0.000000000E+000                                                 T               0         AD User property on blade 1, node 17, -
         27     0.000000000E+000                                                 T               0         AD User property on blade 1, node 18, -
         28     0.000000000E+000                                                 T               0         AD User property on blade 1, node 19, -
         29     0.000000000E+000                                                 T               0         AD User property on blade 2, node 1, -
         30     0.000000000E+000                                                 T               0         AD User property on blade 2, node 2, -
         31     0.000000000E+000                                                 T               0         AD User property on blade 2, node 3, -
         32     0.000000000E+000                                                 T               0         AD User property on blade 2, node 4, -
         33     0.000000000E+000                                                 T               0         AD User property on blade 2, node 5, -
         34     0.000000000E+000                                                 T               0         AD User property on blade 2, node 6, -
         35     0.000000000E+000                                                 T               0         AD User property on blade 2, node 7, -
         36     0.000000000E+000                                                 T               0         AD User property on blade 2, node 8, -
         37     0.000000000E+000                                                 T               0         AD User property on blade 2, node 9, -
         38     0.000000000E+000                                                 T               0         AD User property on blade 2, node 10, -
         39     0.000000000E+000                                                 T               0         AD User property on blade 2, node 11, -
         40     0.000000000E+000                                                 T               0         AD User property on blade 2, node 12, -
         41     0.000000000E+000                                                 T               0         AD User property on blade 2, node 13, -
         42     0.000000000E+000                                                 T               0         AD User property on blade 2, node 14, -
         43     0.000000000E+000                                                 T               0         AD User property on blade 2, node 15, -
         44     0.000000000E+000                                                 T               0         AD User property on blade 2, node 16, -
         45     0.000000000E+000                                                 T               0         AD User property on blade 2, node 17, -
         46     0.000000000E+000                                                 T               0         AD User property on blade 2, node 18, -
         47     0.000000000E+000                                                 T               0         AD User property on blade 2, node 19, -
         48     0.000000000E+000                                                 T               0         AD User property on blade 3, node 1, -
         49     0.000000000E+000                                                 T               0         AD User property on blade 3, node 2, -
         50     0.000000000E+000                                                 T               0         AD User property on blade 3, node 3, -
         51     0.000000000E+000                                                 T               0         AD User property on blade 3, node 4, -
         52     0.000000000E+000                                                 T               0         AD User property on blade 3, node 5, -
         53     0.000000000E+000                                                 T               0         AD User property on blade 3, node 6, -
         54     0.000000000E+000                                                 T               0         AD User property on blade 3, node 7, -
         55     0.000000000E+000                                                 T               0         AD User property on blade 3, node 8, -
         56     0.000000000E+000                                                 T               0         AD User property on blade 3, node 9, -
         57     0.000000000E+000                                                 T               0         AD User property on blade 3, node 10, -
         58     0.000000000E+000                                                 T               0         AD User property on blade 3, node 11, -
         59     0.000000000E+000                                                 T               0         AD User property on blade 3, node 12, -
         60     0.000000000E+000                                                 T               0         AD User property on blade 3, node 13, -
         61     0.000000000E+000                                                 T               0         AD User property on blade 3, node 14, -
         62     0.000000000E+000                                                 T               0         AD User property on blade 3, node 15, -
         63     0.000000000E+000                                                 T               0         AD User property on blade 3, node 16, -
         64     0.000000000E+000                                                 T               0         AD User property on blade 3, node 17, -
         65     0.000000000E+000                                                 T               0         AD User property on blade 3, node 18, -
         66     0.000000000E+000                                                 T               0         AD User property on blade 3, node 19, -

Order of outputs:
        Row   Operating Point                                             Rotating Frame? Derivative Order Description
   ---------- ---------------                                             --------------- ---------------- -----------
          1     1.525000000E+001                                                 F               0         IfW Wind1VelX, (m/s)
          2     0.000000000E+000                                                 F               0         IfW Wind1VelY, (m/s)
          3     0.000000000E+000                                                 F               0         IfW Wind1VelZ, (m/s)
          4     2.448599815E+000                                                 T               0         ED OoPDefl1, (m)
          5    -1.030186772E+000                                                 T               0         ED IPDefl1, (m)
          6     0.000000000E+000                                                 T               0         ED TwstDefl1, (deg)
          7     1.086418915E+001                                                 T               0         ED BldPitch1, (deg)
          8     1.304248505E+002                                                 F               0         ED Azimuth, (deg)
          9     1.209962368E+001                                                 F               0         ED RotSpeed, (rpm)
         10     1.173672974E+003                                                 F               0         ED GenSpeed, (rpm)
         11     2.170662433E-001                                                 F               0         ED TTDspFA, (m)
         12    -4.578649998E-002                                                 F               0         ED TTDspSS, (m)
         13     0.000000000E+000                                                 F               0         ED TTDspTwst, (deg)
         14     2.539159241E+002                                                 T               0         ED Spn2MLxb1, (kN-m)
         15     1.266395386E+003                                                 T               0         ED Spn2MLyb1, (kN-m)
         16     2.110921936E+002                                                 T               0         ED RootFxb1, (kN)
         17    -1.422339325E+002                                                 T               0         ED RootFyb1, (kN)
         18     7.237044067E+002                                                 T               0         ED RootFzb1, (kN)
         19     2.951132568E+003                                                 T               0         ED RootMxb1, (kN-m)
         20     6.159301758E+003                                                 T               0         ED RootMyb1, (kN-m)
         21    -4.430227280E+001                                                 T               0         ED RootMzb1, (kN-m)
         22     4.078773682E+003                                                 F               0         ED RotTorq, (kN-m)
         23     1.587002930E+003                                                 F               0         ED LSSGagMya, (kN-m)
         24     2.056799805E+003                                                 F               0         ED LSSGagMza, (kN-m)
         25     4.081691284E+002                                                 F               0         ED YawBrFxp, (kN)
         26    -1.971898675E+000                                                 F               0         ED YawBrFyp, (kN)
         27    -3.459635498E+003                                                 F               0         ED YawBrFzp, (kN)
         28     4.055305664E+003                                                 F               0         ED YawBrMxp, (kN-m)
         29    -6.394980469E+002                                                 F               0         ED YawBrMyp, (kN-m)
         30    -4.890192566E+002                                                 F               0         ED YawBrMzp, (kN-m)
         31     4.521832581E+002                                                 F               0         ED TwrBsFxt, (kN)
         32     2.372075796E+000                                                 F               0         ED TwrBsFyt, (kN)
         33    -6.868773438E+003                                                 F               0         ED TwrBsFzt, (kN)
         34     4.039006592E+003                                                 F               0         ED TwrBsMxt, (kN-m)
         35     3.735690234E+004                                                 F               0         ED TwrBsMyt, (kN-m)
         36    -4.864587708E+002                                                 F               0         ED TwrBsMzt, (kN-m)


Linearized state matrices:

A: 28 x 28
     0.000000000E+000   0.000000000E+000   0.000000000E+000   0.000000000E+000   0.000000000E+000   0.000000000E+000   0.000000000E+000   0.000000000E+000   0.000000000E+000   0.000000000E+000   0.000000000E+000   0.000000000E+000   0.000000000E+000   0.000000000E+000   1.000000000E+000   0.000000000E+000   0.000000000E+000   0.000000000E+000   0.000000000E+000   0.000000000E+000   0.000000000E+000   0.000000000E+000   0.000000000E+000   0.000000000E+000   0.000000000E+000   0.000000000E+000   0.000000000E+000   0.000000000E+000
     0.000000000E+000   0.000000000E+000   0.000000000E+000   0.000000000E+000   0.000000000E+000   0.000000000E+000   0.000000000E+000   0.000000000E+000   0.000000000E+000   0.000000000E+000   0.000000000E+000   0.000000000E+000   0.000000000E+000   0.000000000E+000   0.000000000E+000   1.000000000E+000   0.000000000E+000   0.000000000E+000   0.000000000E+000   0.000000000E+000   0.000000000E+000   0.000000000E+000   0.000000000E+000   0.000000000E+000   0.000000000E+000   0.000000000E+000   0.000000000E+000   0.000000000E+000
     0.000000000E+000   0.000000000E+000   0.000000000E+000   0.000000000E+000   0.000000000E+000   0.000000000E+000   0.000000000E+000   0.000000000E+000   0.000000000E+000   0.000000000E+000   0.000000000E+000   0.000000000E+000   0.000000000E+000   0.000000000E+000   0.000000000E+000   0.000000000E+000   1.000000000E+000   0.000000000E+000   0.000000000E+000   0.000000000E+000   0.000000000E+000   0.000000000E+000   0.000000000E+000   0.000000000E+000   0.000000000E+000   0.000000000E+000   0.000000000E+000   0.000000000E+000